 Gaussian 16, Revision C.02,

 ----------------------------------------------------------------------
 #p ub3lyp 6-31G(2df,p) opt=(calcfc,cartesian) freq scf=(novaracc,maxcy
 cles=1000,fermi,xqc) empiricaldispersion=gd3
 ----------------------------------------------------------------------

 -----
 title
 -----
 Symbolic Z-matrix:
 Charge =  0 Multiplicity = 1

 SCF Done:  E(UB3LYP) =  -1262.70613575     A.U. after   13 cycles
 SCF Done:  E(UB3LYP) =  -1262.70748190     A.U. after   10 cycles
 SCF Done:  E(UB3LYP) =  -1262.70850772     A.U. after   10 cycles
 SCF Done:  E(UB3LYP) =  -1262.70896751     A.U. after   10 cycles
 SCF Done:  E(UB3LYP) =  -1262.70889517     A.U. after   10 cycles
 SCF Done:  E(UB3LYP) =  -1262.70902094     A.U. after   10 cycles
 SCF Done:  E(UB3LYP) =  -1262.70907338     A.U. after   10 cycles
 SCF Done:  E(UB3LYP) =  -1262.70912091     A.U. after   10 cycles
 SCF Done:  E(UB3LYP) =  -1262.70912242     A.U. after   10 cycles
 SCF Done:  E(UB3LYP) =  -1262.70921169     A.U. after   10 cycles
 SCF Done:  E(UB3LYP) =  -1262.70930510     A.U. after    7 cycles
 SCF Done:  E(UB3LYP) =  -1262.70930513     A.U. after    6 cycles
 SCF Done:  E(UB3LYP) =  -1262.70930503     A.U. after    7 cycles
 SCF Done:  E(UB3LYP) =  -1262.70930516     A.U. after    5 cycles
 SCF Done:  E(UB3LYP) =  -1262.70930517     A.U. after    5 cycles
 SCF Done:  E(UB3LYP) =  -1262.70930518     A.U. after    6 cycles
 SCF Done:  E(UB3LYP) =  -1262.70930517     A.U. after    7 cycles
 SCF Done:  E(UB3LYP) =  -1262.70930519     A.U. after    5 cycles
 Optimization completed.
    -- Stationary point found.
 Normal termination of Gaussian 16 at Fri Jan 31 17:09:01 2025.

 ----------------------------------------------------------------------
 #P Geom=AllCheck Guess=TCheck SCRF=Check GenChk UB3LYP/6-31G(2df,p) Fr
 eq
 ----------------------------------------------------------------------

 Structure from the checkpoint file:  "phenothiazine_0_gas.chk"
 -----
 title
 -----
 Charge =  0 Multiplicity = 1

 SCF Done:  E(UB3LYP) =  -1262.70930519     A.U. after    1 cycles

  Exact polarizability:     243.661     -20.018     259.636      29.527       6.965     150.110
 Approx polarizability:     352.742     -20.547     405.082      63.866      16.695     258.257

                      1                      2                      3
                      A                      A                      A
 Frequencies --     12.6365                26.6608                46.9363
 Red. masses --      4.1862                 4.3193                 3.3690
 Frc consts  --      0.0004                 0.0018                 0.0044
 IR Inten    --      0.1292                 0.3306                 0.7401

                      4                      5                      6
                      A                      A                      A
 Frequencies --     55.0775                62.1016                83.5774
 Red. masses --      4.9240                 5.5454                 2.7511
 Frc consts  --      0.0088                 0.0126                 0.0113
 IR Inten    --      0.0859                 1.1660                 4.1776

                      7                      8                      9
                      A                      A                      A
 Frequencies --    106.5842               139.0726               142.7184
 Red. masses --      3.0019                 3.2271                 4.3208
 Frc consts  --      0.0201                 0.0368                 0.0519
 IR Inten    --      1.6213                 1.0928                 1.4438

                     10                     11                     12
                      A                      A                      A
 Frequencies --    159.5140               175.5799               202.4581
 Red. masses --      3.0648                 3.2814                 3.8084
 Frc consts  --      0.0459                 0.0596                 0.0920
 IR Inten    --      0.1733                 0.1431                 0.6777

                     13                     14                     15
                      A                      A                      A
 Frequencies --    234.1229               244.7886               263.9887
 Red. masses --      2.7947                 2.0351                 2.6748
 Frc consts  --      0.0903                 0.0718                 0.1098
 IR Inten    --      0.1083                 3.3106                 1.9468

                     16                     17                     18
                      A                      A                      A
 Frequencies --    292.9255               299.1799               339.5304
 Red. masses --      2.7786                 3.1412                 4.4840
 Frc consts  --      0.1405                 0.1657                 0.3046
 IR Inten    --      0.5589                 1.7473                 0.4569

                     19                     20                     21
                      A                      A                      A
 Frequencies --    353.1074               385.6046               401.3207
 Red. masses --      6.5502                 4.0794                 4.7126
 Frc consts  --      0.4812                 0.3574                 0.4472
 IR Inten    --      1.6350                 1.6695                 1.8987

                     22                     23                     24
                      A                      A                      A
 Frequencies --    425.0882               445.2158               455.3677
 Red. masses --      5.1019                 5.8542                 3.8331
 Frc consts  --      0.5432                 0.6837                 0.4683
 IR Inten    --      2.2106                 0.7236                 1.0421

                     25                     26                     27
                      A                      A                      A
 Frequencies --    460.4563               526.0498               541.7314
 Red. masses --      4.0395                 5.8371                 4.2491
 Frc consts  --      0.5046                 0.9517                 0.7347
 IR Inten    --      7.3689                 1.9104                 0.1280

                     28                     29                     30
                      A                      A                      A
 Frequencies --    552.3081               583.1454               610.6547
 Red. masses --      4.4380                 2.7986                 5.1942
 Frc consts  --      0.7976                 0.5607                 1.1412
 IR Inten    --      4.8608                 0.8903                 6.0715

                     31                     32                     33
                      A                      A                      A
 Frequencies --    633.4494               686.7898               705.5227
 Red. masses --      5.1274                 6.0976                 6.0645
 Frc consts  --      1.2122                 1.6946                 1.7785
 IR Inten    --      8.6565                 1.8045                 4.1787

                     34                     35                     36
                      A                      A                      A
 Frequencies --    747.8152               750.9930               767.5808
 Red. masses --      3.9062                 3.4201                 1.3134
 Frc consts  --      1.2870                 1.1365                 0.4559
 IR Inten    --      0.3067                10.1887                16.2993

                     37                     38                     39
                      A                      A                      A
 Frequencies --    771.7925               787.4154               829.1735
 Red. masses --      1.4729                 3.9601                 1.2936
 Frc consts  --      0.5169                 1.4467                 0.5240
 IR Inten    --     58.4694                 9.1517                 4.1283

                     40                     41                     42
                      A                      A                      A
 Frequencies --    873.7857               874.2118               878.6010
 Red. masses --      1.8037                 1.6814                 1.4443
 Frc consts  --      0.8114                 0.7571                 0.6569
 IR Inten    --      7.4570                 6.9655                 2.3874

                     43                     44                     45
                      A                      A                      A
 Frequencies --    904.6068               912.0509               930.2210
 Red. masses --      2.5855                 2.7368                 1.3480
 Frc consts  --      1.2466                 1.3413                 0.6872
 IR Inten    --     22.2595                 3.3936                 1.1579

                     46                     47                     48
                      A                      A                      A
 Frequencies --    933.2668               961.9132               964.0739
 Red. masses --      1.3454                 1.2362                 1.2365
 Frc consts  --      0.6904                 0.6739                 0.6771
 IR Inten    --      2.6355                 0.1124                 0.2968

                     49                     50                     51
                      A                      A                      A
 Frequencies --   1049.2998              1056.7821              1060.1638
 Red. masses --      3.0199                 4.1323                 5.2896
 Frc consts  --      1.9590                 2.7190                 3.5028
 IR Inten    --     15.6425                 7.8951                12.9205

                     52                     53                     54
                      A                      A                      A
 Frequencies --   1065.8894              1069.3969              1074.7321
 Red. masses --      3.2661                 2.8119                 2.3549
 Frc consts  --      2.1863                 1.8947                 1.6026
 IR Inten    --      4.1809                 6.1557                 2.6046

                     55                     56                     57
                      A                      A                      A
 Frequencies --   1096.4391              1127.9799              1135.2601
 Red. masses --      2.9518                 3.1068                 2.1152
 Frc consts  --      2.0907                 2.3290                 1.6062
 IR Inten    --     11.2182                11.0219                40.0558

                     58                     59                     60
                      A                      A                      A
 Frequencies --   1148.0744              1154.6676              1157.4094
 Red. masses --      1.7976                 1.8235                 3.9066
 Frc consts  --      1.3960                 1.4324                 3.0833
 IR Inten    --     10.7700                34.1489               295.7901

                     61                     62                     63
                      A                      A                      A
 Frequencies --   1169.2833              1181.0943              1189.1169
 Red. masses --      1.6092                 4.7816                 1.3775
 Frc consts  --      1.2962                 3.9300                 1.1476
 IR Inten    --     17.4725                99.7847                 5.3994

                     64                     65                     66
                      A                      A                      A
 Frequencies --   1195.5091              1197.8814              1226.9382
 Red. masses --      1.0973                 1.1139                 1.4412
 Frc consts  --      0.9240                 0.9418                 1.2782
 IR Inten    --      0.2760                 1.9989                19.8574

                     67                     68                     69
                      A                      A                      A
 Frequencies --   1239.4636              1267.7899              1271.1080
 Red. masses --      1.4057                 1.2984                 1.4104
 Frc consts  --      1.2724                 1.2296                 1.3426
 IR Inten    --     47.2999                 5.5504                41.0160

                     70                     71                     72
                      A                      A                      A
 Frequencies --   1284.2453              1310.7959              1315.5659
 Red. masses --      2.0762                 1.1347                 2.0161
 Frc consts  --      2.0176                 1.1487                 2.0558
 IR Inten    --     69.3147                13.2841                16.6486

                     73                     74                     75
                      A                      A                      A
 Frequencies --   1319.2131              1322.8107              1335.3077
 Red. masses --      1.7614                 2.1942                 3.4538
 Frc consts  --      1.8061                 2.2622                 3.6284
 IR Inten    --     46.1402                 7.9482                10.8783

                     76                     77                     78
                      A                      A                      A
 Frequencies --   1341.5987              1378.2277              1402.5078
 Red. masses --      2.1693                 1.6118                 1.3223
 Frc consts  --      2.3005                 1.8038                 1.5325
 IR Inten    --     15.6610                90.4624                33.3006

                     79                     80                     81
                      A                      A                      A
 Frequencies --   1429.9101              1462.4342              1471.1126
 Red. masses --      1.4023                 1.4682                 2.3103
 Frc consts  --      1.6893                 1.8500                 2.9459
 IR Inten    --      6.5651                 3.6431                20.2455

                     82                     83                     84
                      A                      A                      A
 Frequencies --   1472.7077              1480.3573              1486.6923
 Red. masses --      2.2495                 1.1638                 1.0460
 Frc consts  --      2.8745                 1.5027                 1.3621
 IR Inten    --     16.5112                 3.8424                 4.9515

                     85                     86                     87
                      A                      A                      A
 Frequencies --   1491.5465              1497.2157              1502.2112
 Red. masses --      2.3633                 1.0674                 1.0973
 Frc consts  --      3.0977                 1.4098                 1.4590
 IR Inten    --    207.3857                15.4944                19.7157

                     88                     89                     90
                      A                      A                      A
 Frequencies --   1513.9533              1521.9769              1522.0919
 Red. masses --      1.1514                 1.1864                 2.1333
 Frc consts  --      1.5549                 1.6192                 2.9119
 IR Inten    --      5.8458                 5.9257                16.6976

                     91                     92                     93
                      A                      A                      A
 Frequencies --   1535.6895              1603.3702              1612.0698
 Red. masses --      1.0957                 5.5933                 5.6145
 Frc consts  --      1.5225                 8.4720                 8.5966
 IR Inten    --      3.2296                 0.2683                18.3887

                     94                     95                     96
                      A                      A                      A
 Frequencies --   1614.0568              1636.2586              2943.7921
 Red. masses --      6.2365                 6.1404                 1.0555
 Frc consts  --      9.5725                 9.6861                 5.3889
 IR Inten    --      1.3628                25.4935                10.0605

                     97                     98                     99
                      A                      A                      A
 Frequencies --   2957.0159              2963.3935              2971.5479
 Red. masses --      1.0490                 1.0491                 1.0618
 Frc consts  --      5.4041                 5.4279                 5.5240
 IR Inten    --     32.0511                96.9209                40.9952

                    100                    101                    102
                      A                      A                      A
 Frequencies --   2984.3690              3001.7299              3003.1293
 Red. masses --      1.1029                 1.1008                 1.1031
 Frc consts  --      5.7876                 5.8437                 5.8616
 IR Inten    --     53.7801               103.3041                17.7598

                    103                    104                    105
                      A                      A                      A
 Frequencies --   3004.8633              3017.0631              3108.9346
 Red. masses --      1.0729                 1.0959                 1.0957
 Frc consts  --      5.7077                 5.8774                 6.2395
 IR Inten    --     48.4828                27.8074                27.7347

                    106                    107                    108
                      A                      A                      A
 Frequencies --   3125.8207              3173.8140              3174.3147
 Red. masses --      1.0909                 1.0844                 1.0844
 Frc consts  --      6.2798                 6.4356                 6.4380
 IR Inten    --     11.6113                 0.8045                 0.2952

                    109                    110                    111
                      A                      A                      A
 Frequencies --   3182.8428              3183.4110              3197.0251
 Red. masses --      1.0892                 1.0894                 1.0927
 Frc consts  --      6.5013                 6.5044                 6.5803
 IR Inten    --      6.9550                 6.6185                21.1360

                    112                    113                    114
                      A                      A                      A
 Frequencies --   3197.9852              3205.1293              3206.7170
 Red. masses --      1.0934                 1.0961                 1.0952
 Frc consts  --      6.5887                 6.6342                 6.6353
 IR Inten    --     21.3837                12.7844                10.2603

 - Thermochemistry -
 -------------------
 Temperature   298.150 Kelvin.  Pressure   1.00000 Atm.
 Atom     1 has atomic number  6 and mass  12.00000

 Molecular mass:   301.11365 amu.
 Principal axes and moments of inertia in atomic units:
                           1         2         3
     Eigenvalues --  4366.62202********************
           X            0.99999   0.00219  -0.00295
           Y           -0.00219   1.00000   0.00088
           Z            0.00295  -0.00087   1.00000
 This molecule is an asymmetric top.
 Rotational symmetry number  1.
 Warning -- assumption of classical behavior for rotation
           may cause significant error
 Rotational temperatures (Kelvin)      0.01984     0.00711     0.00575
 Rotational constants (GHZ):           0.41330     0.14822     0.11975
 Zero-point vibrational energy     862159.9 (Joules/Mol)
                                  206.06115 (Kcal/Mol)
 Warning -- explicit consideration of  30 degrees of freedom as
           vibrations may cause significant error
 Vibrational temperatures:     18.18    38.36    67.53    79.24    89.35
          (Kelvin)            120.25   153.35   200.09   205.34   229.51
                              252.62   291.29   336.85   352.20   379.82
                              421.45   430.45   488.51   508.04   554.80
                              577.41   611.61   640.57   655.17   662.49
                              756.87   779.43   794.65   839.02   878.60
                              911.39   988.14  1015.09  1075.94  1080.51
                             1104.38  1110.44  1132.92  1193.00  1257.18
                             1257.80  1264.11  1301.53  1312.24  1338.38
                             1342.76  1383.98  1387.09  1509.71  1520.47
                             1525.34  1533.58  1538.62  1546.30  1577.53
                             1622.91  1633.39  1651.82  1661.31  1665.25
                             1682.34  1699.33  1710.87  1720.07  1723.48
                             1765.29  1783.31  1824.07  1828.84  1847.74
                             1885.94  1892.81  1898.05  1903.23  1921.21
                             1930.26  1982.96  2017.90  2057.32  2104.12
                             2116.60  2118.90  2129.90  2139.02  2146.00
                             2154.16  2161.35  2178.24  2189.79  2189.95
                             2209.51  2306.89  2319.41  2322.27  2354.21
                             4235.46  4254.49  4263.66  4275.39  4293.84
                             4318.82  4320.83  4323.33  4340.88  4473.06
                             4497.36  4566.41  4567.13  4579.40  4580.22
                             4599.81  4601.19  4611.47  4613.75

 Zero-point correction=                           0.328379 (Hartree/Particle)
 Thermal correction to Energy=                    0.347706
 Thermal correction to Enthalpy=                  0.348650
 Thermal correction to Gibbs Free Energy=         0.277960
 Sum of electronic and zero-point Energies=          -1262.380926
 Sum of electronic and thermal Energies=             -1262.361599
 Sum of electronic and thermal Enthalpies=           -1262.360655
 Sum of electronic and thermal Free Energies=        -1262.431345

                     E (Thermal)             CV                S
                      KCal/Mol        Cal/Mol-Kelvin    Cal/Mol-Kelvin
 Total                  218.189             73.700            148.779
 Electronic               0.000              0.000              0.000
 Translational            0.889              2.981             43.004
 Rotational               0.889              2.981             35.037
 Vibrational            216.411             67.738             70.738
 Vibration     1          0.593              1.987              7.546
 Vibration     2          0.593              1.984              6.064
 Vibration     3          0.595              1.979              4.942
 Vibration     4          0.596              1.976              4.626
 Vibration     5          0.597              1.972              4.389
 Vibration     6          0.600              1.960              3.805
 Vibration     7          0.605              1.944              3.330
 Vibration     8          0.615              1.914              2.817
 Vibration     9          0.616              1.910              2.767
 Vibration    10          0.621              1.892              2.556
 Vibration    11          0.628              1.872              2.375
 Vibration    12          0.639              1.836              2.111
 Vibration    13          0.654              1.789              1.847
 Vibration    14          0.660              1.771              1.768
 Vibration    15          0.671              1.739              1.635
 Vibration    16          0.688              1.687              1.457
 Vibration    17          0.692              1.675              1.421
 Vibration    18          0.719              1.597              1.214
 Vibration    19          0.729              1.569              1.152
 Vibration    20          0.754              1.501              1.017
 Vibration    21          0.767              1.467              0.958
 Vibration    22          0.787              1.416              0.875
 Vibration    23          0.805              1.371              0.810
 Vibration    24          0.814              1.349              0.780
 Vibration    25          0.818              1.338              0.765
 Vibration    26          0.881              1.192              0.596
 Vibration    27          0.897              1.158              0.562
 Vibration    28          0.908              1.135              0.539
 Vibration    29          0.940              1.068              0.480
 Vibration    30          0.970              1.009              0.432

 Optimization completed on the basis of negligible forces.
    -- Stationary point found.
 Normal termination of Gaussian 16 at Fri Jan 31 17:18:48 2025.
 Gaussian 16:  ES64L-G16RevC.02  7-Dec-2021

 ----------------------------------------------------------------------
 #p ub3lyp scf=(novaracc,maxcycles=1000,fermi,xqc) empiricaldispersion=
 gd3 geom=allcheck guess=read chkbasis scrf=(cpcm,solvent=acetonitrile)
 ----------------------------------------------------------------------

 Structure from the checkpoint file:  "phenothiazine_0_gas.chk"
 -----
 title
 -----
 Charge =  0 Multiplicity = 1

                         Standard orientation:
 ---------------------------------------------------------------------
 Center     Atomic      Atomic             Coordinates (Angstroms)
 Number     Number       Type             X           Y           Z
 ---------------------------------------------------------------------
      1          6           0        2.730151   -3.277843   -1.015535
      2          6           0        3.936093   -2.974710   -0.392701
      3          6           0        4.071566   -1.762369    0.279213
      4          6           0        2.995986   -0.882904    0.364937
      5          6           0        1.768971   -1.183818   -0.252415
      6          6           0        1.663493   -2.383441   -0.965547
      7          7           0        0.698264   -0.268621   -0.143876
      8          6           0        0.980516    1.105215   -0.320903
      9          6           0        0.160651    1.947552   -1.080847
     10          6           0        0.459683    3.301493   -1.211758
     11          6           0        1.598949    3.834495   -0.617915
     12          6           0        2.441570    3.001056    0.113462
     13          6           0        2.126518    1.655265    0.279459
     14          1           0        2.616177   -4.207790   -1.562203
     15          1           0        4.770079   -3.665901   -0.437430
     16          1           0        5.009722   -1.496897    0.754649
     17          1           0        0.747473   -2.619633   -1.492906
     18          1           0       -0.720389    1.549362   -1.568452
     19          1           0       -0.200800    3.935350   -1.793606
     20          1           0        1.836693    4.886795   -0.724922
     21          1           0        3.341978    3.393219    0.574003
     22         16           0        3.132537    0.615058    1.309322
     23          6           0       -0.668180   -0.742633   -0.308159
     24          1           0       -1.066701   -0.575815   -1.318526
     25          1           0       -0.676866   -1.819364   -0.139961
     26          6           0       -1.612028   -0.118472    0.720695
     27          1           0       -1.267205   -0.380149    1.734767
     28          1           0       -1.613528    0.979014    0.649646
     29          8           0       -2.893038   -0.640987    0.455387
     30          6           0       -3.891818   -0.144899    1.318738
     31          1           0       -3.702963   -0.461613    2.358721
     32          1           0       -3.914738    0.956783    1.300787
     33          6           0       -5.235589   -0.676160    0.866016
     34          1           0       -5.162887   -1.767257    0.722123
     35          1           0       -5.985177   -0.491674    1.655676
     36          8           0       -5.598841   -0.030832   -0.332421
     37          6           0       -6.806555   -0.513269   -0.869792
     38          1           0       -7.652572   -0.369557   -0.177072
     39          1           0       -7.004341    0.047764   -1.786658
     40          1           0       -6.747226   -1.586001   -1.116070
 ---------------------------------------------------------------------

 SCF Done:  E(UB3LYP) =  -1262.71786162     A.U. after   11 cycles

 The electronic state is 1-A.
 Alpha  occ. eigenvalues --  -88.89239 -19.14588 -19.14205 -14.36479 -10.23539
 Alpha  occ. eigenvalues --  -10.23533 -10.23064 -10.22927 -10.22779 -10.22183
 Alpha  occ. eigenvalues --  -10.22124 -10.21935 -10.21914 -10.19446 -10.19421
 Alpha  occ. eigenvalues --  -10.19093 -10.19047 -10.19034 -10.18991 -10.18673
 Alpha  occ. eigenvalues --  -10.18642  -7.95394  -5.91864  -5.91534  -5.90990
 Alpha  occ. eigenvalues --   -1.04633  -1.03060  -0.97031  -0.86364  -0.85989
 Alpha  occ. eigenvalues --   -0.80501  -0.78057  -0.76181  -0.75130  -0.74535
 Alpha  occ. eigenvalues --   -0.72085  -0.68370  -0.66863  -0.63939  -0.62592
 Alpha  occ. eigenvalues --   -0.60393  -0.60060  -0.59110  -0.56375  -0.54390
 Alpha  occ. eigenvalues --   -0.52122  -0.50272  -0.49953  -0.48219  -0.47789
 Alpha  occ. eigenvalues --   -0.47152  -0.46456  -0.46237  -0.45661  -0.44505
 Alpha  occ. eigenvalues --   -0.43978  -0.43774  -0.42142  -0.41842  -0.40945
 Alpha  occ. eigenvalues --   -0.40566  -0.38831  -0.38459  -0.37261  -0.37045
 Alpha  occ. eigenvalues --   -0.36260  -0.36058  -0.35642  -0.34353  -0.33306
 Alpha  occ. eigenvalues --   -0.32663  -0.31756  -0.30739  -0.29784  -0.26687
 Alpha  occ. eigenvalues --   -0.25980  -0.25561  -0.25298  -0.22885  -0.19340
 Alpha virt. eigenvalues --   -0.01751  -0.01331  -0.00522   0.00652   0.03380
 Alpha virt. eigenvalues --    0.07204   0.08855   0.09737   0.10587   0.11603
 Alpha virt. eigenvalues --    0.12507   0.12787   0.13237   0.14021   0.14261

  Beta  occ. eigenvalues --  -88.89239 -19.14588 -19.14205 -14.36479 -10.23539
  Beta  occ. eigenvalues --  -10.23533 -10.23064 -10.22927 -10.22779 -10.22183
  Beta  occ. eigenvalues --  -10.22124 -10.21935 -10.21914 -10.19446 -10.19421
  Beta  occ. eigenvalues --  -10.19093 -10.19047 -10.19034 -10.18991 -10.18673
  Beta  occ. eigenvalues --  -10.18642  -7.95394  -5.91864  -5.91534  -5.90990
  Beta  occ. eigenvalues --   -1.04633  -1.03060  -0.97031  -0.86364  -0.85989
  Beta  occ. eigenvalues --   -0.80501  -0.78057  -0.76181  -0.75130  -0.74535
  Beta  occ. eigenvalues --   -0.72085  -0.68370  -0.66863  -0.63939  -0.62592
  Beta  occ. eigenvalues --   -0.60393  -0.60060  -0.59110  -0.56375  -0.54390
  Beta  occ. eigenvalues --   -0.52122  -0.50272  -0.49953  -0.48219  -0.47789
  Beta  occ. eigenvalues --   -0.47152  -0.46456  -0.46237  -0.45661  -0.44505
  Beta  occ. eigenvalues --   -0.43978  -0.43774  -0.42142  -0.41842  -0.40945
  Beta  occ. eigenvalues --   -0.40566  -0.38831  -0.38459  -0.37261  -0.37045
  Beta  occ. eigenvalues --   -0.36260  -0.36058  -0.35642  -0.34353  -0.33306
  Beta  occ. eigenvalues --   -0.32663  -0.31756  -0.30739  -0.29784  -0.26687
  Beta  occ. eigenvalues --   -0.25980  -0.25561  -0.25298  -0.22885  -0.19340
  Beta virt. eigenvalues --   -0.01751  -0.01331  -0.00522   0.00652   0.03380
  Beta virt. eigenvalues --    0.07204   0.08855   0.09737   0.10587   0.11603
  Beta virt. eigenvalues --    0.12507   0.12787   0.13237   0.14021   0.14261

 Mulliken charges and spin densities:
               1          2
     1  C   -0.120197  -0.000000
     2  C   -0.137044   0.000000
     3  C   -0.197288  -0.000000
     4  C    0.125682   0.000000
     5  C    0.243994  -0.000000
     6  C   -0.219918  -0.000000
     7  N   -0.223365   0.000000
     8  C    0.239462  -0.000000
     9  C   -0.209480   0.000000
    10  C   -0.124836  -0.000000
    11  C   -0.135659   0.000000
    12  C   -0.199281  -0.000000
    13  C    0.127120  -0.000000
    14  H    0.116912   0.000000
    15  H    0.115141  -0.000000
    16  H    0.124394  -0.000000
    17  H    0.126365   0.000000
    18  H    0.124313   0.000000
    19  H    0.117432   0.000000
    20  H    0.115393   0.000000
    21  H    0.124713   0.000000
    22  S   -0.205895  -0.000000
    23  C   -0.213214  -0.000000
    24  H    0.125594   0.000000
    25  H    0.138822   0.000000
    26  C   -0.069413   0.000000
    27  H    0.105006  -0.000000
    28  H    0.109538  -0.000000
    29  O   -0.260220   0.000000
    30  C   -0.072014   0.000000
    31  H    0.102706   0.000000
    32  H    0.103679   0.000000
    33  C   -0.071444  -0.000000
    34  H    0.100296   0.000000
    35  H    0.100106   0.000000
    36  O   -0.247164   0.000000
    37  C   -0.238399  -0.000000
    38  H    0.112911   0.000000
    39  H    0.131283  -0.000000
    40  H    0.113963   0.000000
 Sum of Mulliken charges =  -0.00000   0.00000

 Dipole moment (field-independent basis, Debye):
    X=             -2.7043    Y=             -0.9177    Z=             -0.3825  Tot=              2.8812
 Quadrupole moment (field-independent basis, Debye-Ang):
   XX=           -116.2342   YY=           -118.1268   ZZ=           -129.0907
   XY=              0.5768   XZ=             -4.5849   YZ=              0.5867

 Normal termination of Gaussian 16 at Fri Jan 31 17:19:30 2025.
