 Gaussian 16, Revision C.02,

 ----------------------------------------------------------------------
 #p ub3lyp 6-31G(2df,p) opt=(calcfc,cartesian) freq scf=(novaracc,maxcy
 cles=1000,fermi,xqc) empiricaldispersion=gd3
 ----------------------------------------------------------------------

 -------------------
 Title Card Required
 -------------------
 Symbolic Z-matrix:
 Charge =  0 Multiplicity = 1

 SCF Done:  E(UB3LYP) =  -1650.64107081     A.U. after   16 cycles
 SCF Done:  E(UB3LYP) =  -1650.69014314     A.U. after   14 cycles
 SCF Done:  E(UB3LYP) =  -1650.74367583     A.U. after   14 cycles
 SCF Done:  E(UB3LYP) =  -1650.75792291     A.U. after   13 cycles
 SCF Done:  E(UB3LYP) =  -1650.76370433     A.U. after   13 cycles
 SCF Done:  E(UB3LYP) =  -1650.76461643     A.U. after   13 cycles
 SCF Done:  E(UB3LYP) =  -1650.76533073     A.U. after   13 cycles
 SCF Done:  E(UB3LYP) =  -1650.76210572     A.U. after   13 cycles
 SCF Done:  E(UB3LYP) =  -1650.76463837     A.U. after   13 cycles
 SCF Done:  E(UB3LYP) =  -1650.76031269     A.U. after   13 cycles
 SCF Done:  E(UB3LYP) =  -1650.76635835     A.U. after    9 cycles
 SCF Done:  E(UB3LYP) =  -1650.76636297     A.U. after   11 cycles
 SCF Done:  E(UB3LYP) =  -1650.76636911     A.U. after    9 cycles
 SCF Done:  E(UB3LYP) =  -1650.76636892     A.U. after    9 cycles
 SCF Done:  E(UB3LYP) =  -1650.76637665     A.U. after    9 cycles
 SCF Done:  E(UB3LYP) =  -1650.76637174     A.U. after    9 cycles
 SCF Done:  E(UB3LYP) =  -1650.76637189     A.U. after    9 cycles
 SCF Done:  E(UB3LYP) =  -1650.76636938     A.U. after    5 cycles
 Optimization completed.
    -- Stationary point found.

 1\1\GINC-I372\FOpt\UB3LYP\6-31G(2df,p)\C10H10Fe1\HHARB\31-Jan-2025\0\\
 #p ub3lyp 6-31G(2df,p) opt=(calcfc,cartesian) freq scf=(novaracc,maxcy
 cles=1000,fermi,xqc) empiricaldispersion=gd3\\Title Card Required\\0,1
 \C,-0.6820952882,0.6338770459,0.1377059753\H,0.174800288,1.2801306304,
 0.2571251127\C,-1.1880461511,0.1316604163,-1.0987619334\H,-0.781494362
 9,0.3318582194,-2.0791946927\C,-2.3391756172,-0.6624253862,-0.81422989
 \H,-2.9565305221,-1.1691150433,-1.5414964263\C,-1.5206780091,0.1501476
 255,1.1861252807\H,-1.4095513992,0.3661075221,2.2388336913\C,-2.544535

 Normal termination of Gaussian 16 at Fri Jan 31 16:49:46 2025.

 ----------------------------------------------------------------------
 #P Geom=AllCheck Guess=TCheck SCRF=Check GenChk UB3LYP/6-31G(2df,p) Fr
 eq
 ----------------------------------------------------------------------

 Structure from the checkpoint file:  "Ferrocene_0_gas.chk"
 -------------------
 Title Card Required
 -------------------
 Charge =  0 Multiplicity = 1

 SCF Done:  E(UB3LYP) =  -1650.76636938     A.U. after    1 cycles

  Exact polarizability:     121.744      -0.001     103.450      -0.005      -0.004     103.443
 Approx polarizability:     211.278      -0.005     181.035      -0.009      -0.004     181.026

                      1                      2                      3
                      A                      A                      A
 Frequencies --     23.9127               171.4724               171.8743
 Red. masses --      3.4154                 4.2371                 4.2432
 Frc consts  --      0.0012                 0.0734                 0.0739
 IR Inten    --      0.0000                 0.6869                 0.6906

                      4                      5                      6
                      A                      A                      A
 Frequencies --    319.1177               382.8732               383.0778
 Red. masses --      5.2168                 4.5545                 4.5585
 Frc consts  --      0.3130                 0.3934                 0.3941
 IR Inten    --      0.0000                 0.0539                 0.0521

                      7                      8                      9
                      A                      A                      A
 Frequencies --    489.1421               511.8576               512.0070
 Red. masses --      8.2994                10.8744                10.8721
 Frc consts  --      1.1699                 1.6786                 1.6793
 IR Inten    --     23.9371                23.5836                23.5782

                     10                     11                     12
                      A                      A                      A
 Frequencies --    603.5357               603.8298               607.4877
 Red. masses --      4.5082                 4.5078                 4.5735
 Frc consts  --      0.9675                 0.9684                 0.9944
 IR Inten    --      0.0000                 0.0001                 0.0000

                     13                     14                     15
                      A                      A                      A
 Frequencies --    607.8413               841.1965               841.2457
 Red. masses --      4.5780                 5.0378                 5.0484
 Frc consts  --      0.9966                 2.1003                 2.1050
 IR Inten    --      0.0000                 0.0003                 0.0000

                     16                     17                     18
                      A                      A                      A
 Frequencies --    842.3351               843.0768               857.3352
 Red. masses --      1.2062                 1.2063                 4.8138
 Frc consts  --      0.5042                 0.5052                 2.0847
 IR Inten    --      0.0409                 0.0005                 0.7173

                     19                     20                     21
                      A                      A                      A
 Frequencies --    857.3428               857.6520               863.7264
 Red. masses --      5.0366                 1.1794                 1.1383
 Frc consts  --      2.1812                 0.5111                 0.5003
 IR Inten    --      0.0256                47.6618                 0.0179

                     22                     23                     24
                      A                      A                      A
 Frequencies --    882.4901               883.2675               920.9971
 Red. masses --      1.2207                 1.2203                 1.1849
 Frc consts  --      0.5601                 0.5609                 0.5922
 IR Inten    --      2.5851                 2.5799                 0.0005

                     25                     26                     27
                      A                      A                      A
 Frequencies --    921.4784               927.0623               927.9187
 Red. masses --      1.1844                 1.1707                 1.1699
 Frc consts  --      0.5925                 0.5928                 0.5935
 IR Inten    --      0.0043                 0.0037                 0.0002

                     28                     29                     30
                      A                      A                      A
 Frequencies --   1019.6527              1019.8573              1028.1886
 Red. masses --      1.5078                 1.5087                 1.5081
 Frc consts  --      0.9236                 0.9246                 0.9394
 IR Inten    --      0.0048                 0.0124                15.5474

                     31                     32                     33
                      A                      A                      A
 Frequencies --   1028.4304              1069.3921              1069.5959
 Red. masses --      1.5092                 1.1802                 1.1798
 Frc consts  --      0.9405                 0.7952                 0.7953
 IR Inten    --     15.5392                 0.0006                 0.0002

                     34                     35                     36
                      A                      A                      A
 Frequencies --   1077.0713              1077.3095              1132.7669
 Red. masses --      1.1732                 1.1729                 5.6655
 Frc consts  --      0.8019                 0.8020                 4.2832
 IR Inten    --      0.0002                 0.0003                 0.1082

                     37                     38                     39
                      A                      A                      A
 Frequencies --   1133.6409              1277.9313              1278.7236
 Red. masses --      5.7592                 1.2775                 1.2778
 Frc consts  --      4.3608                 1.2292                 1.2311
 IR Inten    --     15.2413                 0.0000                 0.0001

                     40                     41                     42
                      A                      A                      A
 Frequencies --   1373.4613              1373.7660              1391.2333
 Red. masses --      5.0726                 5.0747                 5.4364
 Frc consts  --      5.6378                 5.6427                 6.1995
 IR Inten    --      0.0000                 0.0000                 0.0000

                     43                     44                     45
                      A                      A                      A
 Frequencies --   1391.5538              1449.1075              1449.4209
 Red. masses --      5.4368                 2.4194                 2.4147
 Frc consts  --      6.2029                 2.9933                 2.9888
 IR Inten    --      0.0000                 0.2301                 0.1231

                     46                     47                     48
                      A                      A                      A
 Frequencies --   1449.6838              1450.0199              3227.7833
 Red. masses --      2.4422                 2.4359                 1.0879
 Frc consts  --      3.0240                 3.0176                 6.6780
 IR Inten    --      1.4096                 1.3020                 0.0535

                     49                     50                     51
                      A                      A                      A
 Frequencies --   3228.3878              3229.4334              3230.3519
 Red. masses --      1.0878                 1.0882                 1.0882
 Frc consts  --      6.6802                 6.6866                 6.6902
 IR Inten    --      0.0495                 0.0734                 0.0259

                     52                     53                     54
                      A                      A                      A
 Frequencies --   3242.2929              3243.8923              3244.6251
 Red. masses --      1.0959                 1.0959                 1.0959
 Frc consts  --      6.7875                 6.7945                 6.7973
 IR Inten    --      7.0666                 6.2323                12.2329

                     55                     56                     57
                      A                      A                      A
 Frequencies --   3245.3051              3255.8783              3257.0704
 Red. masses --      1.0958                 1.1060                 1.1059
 Frc consts  --      6.7999                 6.9081                 6.9125
 IR Inten    --     16.2698                 1.2561                 0.7593

 - Thermochemistry -
 -------------------
 Temperature   298.150 Kelvin.  Pressure   1.00000 Atm.
 Atom     1 has atomic number  6 and mass  12.00000

 Molecular mass:   186.01319 amu.
 Principal axes and moments of inertia in atomic units:
                           1         2         3
     Eigenvalues --   820.941011671.836251671.84955
           X            1.00000  -0.00001  -0.00002
           Y           -0.00000   0.79125  -0.61149
           Z            0.00002   0.61149   0.79125
 This molecule is an asymmetric top.
 Rotational symmetry number  1.
 Warning -- assumption of classical behavior for rotation
           may cause significant error
 Rotational temperatures (Kelvin)      0.10551     0.05181     0.05181
 Rotational constants (GHZ):           2.19838     1.07950     1.07949
 Zero-point vibrational energy     446213.0 (Joules/Mol)
                                  106.64746 (Kcal/Mol)
 Warning -- explicit consideration of  13 degrees of freedom as
           vibrations may cause significant error
 Vibrational temperatures:     34.41   246.71   247.29   459.14   550.87
          (Kelvin)            551.16   703.77   736.45   736.66   868.35
                              868.78   874.04   874.55  1210.29  1210.36
                             1211.93  1213.00  1233.51  1233.53  1233.97
                             1242.71  1269.71  1270.82  1325.11  1325.80
                             1333.84  1335.07  1467.05  1467.35  1479.33
                             1479.68  1538.62  1538.91  1549.67  1550.01
                             1629.80  1631.06  1838.66  1839.80  1976.10
                             1976.54  2001.67  2002.14  2084.94  2085.39
                             2085.77  2086.26  4644.06  4644.93  4646.43
                             4647.76  4664.94  4667.24  4668.29  4669.27
                             4684.48  4686.20

 Zero-point correction=                           0.169954 (Hartree/Particle)
 Thermal correction to Energy=                    0.178432
 Thermal correction to Enthalpy=                  0.179376
 Thermal correction to Gibbs Free Energy=         0.135635
 Sum of electronic and zero-point Energies=          -1650.596416
 Sum of electronic and thermal Energies=             -1650.587938
 Sum of electronic and thermal Enthalpies=           -1650.586993
 Sum of electronic and thermal Free Energies=        -1650.630735

                     E (Thermal)             CV                S
                      KCal/Mol        Cal/Mol-Kelvin    Cal/Mol-Kelvin
 Total                  111.968             35.891             92.062
 Electronic               0.000              0.000              0.000
 Translational            0.889              2.981             41.568
 Rotational               0.889              2.981             29.219
 Vibrational            110.190             29.930             21.275
 Vibration     1          0.593              1.985              6.279
 Vibration     2          0.626              1.878              2.419
 Vibration     3          0.626              1.877              2.415
 Vibration     4          0.705              1.637              1.315
 Vibration     5          0.752              1.507              1.028
 Vibration     6          0.752              1.506              1.027
 Vibration     7          0.845              1.274              0.686
 Vibration     8          0.867              1.224              0.629
 Vibration     9          0.867              1.223              0.629
 Vibration    10          0.962              1.024              0.444
 Vibration    11          0.962              1.024              0.443
 Vibration    12          0.966              1.016              0.437
 Vibration    13          0.967              1.015              0.436

 1\1\GINC-I372\Freq\UB3LYP\6-31G(2df,p)\C10H10Fe1\HHARB\31-Jan-2025\0\\
 #P Geom=AllCheck Guess=TCheck SCRF=Check GenChk UB3LYP/6-31G(2df,p) Fr
 eq\\Title Card Required\\0,1\C,-0.6820952882,0.6338770459,0.1377059753
 \H,0.174800288,1.2801306304,0.2571251127\C,-1.1880461511,0.1316604163,
 -1.0987619334\H,-0.7814943629,0.3318582194,-2.0791946927\C,-2.33917561
 72,-0.6624253862,-0.81422989\H,-2.9565305221,-1.1691150433,-1.54149642
 63\C,-1.5206780091,0.1501476255,1.1861252807\H,-1.4095513992,0.3661075
 221,2.2388336913\C,-2.5445356002,-0.6513349269,0.597993369\H,-3.344435

 Normal termination of Gaussian 16 at Fri Jan 31 16:52:54 2025.
 Gaussian 16:  ES64L-G16RevC.02  7-Dec-2021

 ----------------------------------------------------------------------
 #p ub3lyp scf=(novaracc,maxcycles=1000,fermi,xqc) empiricaldispersion=
 gd3 geom=allcheck guess=read chkbasis scrf=(cpcm,solvent=acetonitrile)
 ----------------------------------------------------------------------

 Structure from the checkpoint file:  "Ferrocene_0_gas.chk"
 -------------------
 Title Card Required
 -------------------
 Charge =  0 Multiplicity = 1

                         Standard orientation:
 ---------------------------------------------------------------------
 Center     Atomic      Atomic             Coordinates (Angstroms)
 Number     Number       Type             X           Y           Z
 ---------------------------------------------------------------------
      1          6           0       -1.647709   -0.473744   -1.118244
      2          1           0       -1.632144   -0.894759   -2.112567
      3          6           0       -1.648864    0.916671   -0.796054
      4          1           0       -1.633613    1.732340   -1.503913
      5          6           0       -1.650140    1.039887    0.625721
      6          1           0       -1.636488    1.965209    1.182830
      7          6           0       -1.648183   -1.209539    0.104459
      8          1           0       -1.633206   -2.285755    0.197823
      9          6           0       -1.650124   -0.274225    1.182300
     10          1           0       -1.636148   -0.518169    2.234188
     11          6           0        1.648404   -0.558809   -1.077825
     12          1           0        1.633254   -1.055712   -2.036530
     13          6           0        1.648975    0.852227   -0.864387
     14          1           0        1.634867    1.610349   -1.633493
     15          6           0        1.649688    1.085492    0.543602
     16          1           0        1.636030    2.050967    1.026836
     17          6           0        1.648471   -1.197806    0.198239
     18          1           0        1.633224   -2.263289    0.374633
     19          6           0        1.649232   -0.181716    1.200360
     20          1           0        1.635834   -0.343461    2.268107
     21         26           0       -0.000005    0.000448    0.000502
 ---------------------------------------------------------------------

 SCF Done:  E(UB3LYP) =  -1650.76975654     A.U. after    9 cycles

 The electronic state is 1-A.
 Alpha  occ. eigenvalues -- -256.05324 -30.01914 -25.89496 -25.87663 -25.87663
 Alpha  occ. eigenvalues --  -10.18817 -10.18816 -10.18789 -10.18788 -10.18787
 Alpha  occ. eigenvalues --  -10.18786 -10.18739 -10.18737 -10.18736 -10.18736
 Alpha  occ. eigenvalues --   -3.40637  -2.20603  -2.16390  -2.16390  -0.88666
 Alpha  occ. eigenvalues --   -0.86977  -0.70878  -0.70877  -0.70797  -0.70796
 Alpha  occ. eigenvalues --   -0.54446  -0.54444  -0.53568  -0.53564  -0.53332
 Alpha  occ. eigenvalues --   -0.51935  -0.40932  -0.40609  -0.40604  -0.39656
 Alpha  occ. eigenvalues --   -0.39652  -0.37675  -0.37672  -0.37172  -0.37170
 Alpha  occ. eigenvalues --   -0.35640  -0.26614  -0.26611  -0.24866  -0.24865
 Alpha  occ. eigenvalues --   -0.22360  -0.19588  -0.19585
 Alpha virt. eigenvalues --    0.00590   0.00592   0.05473   0.06691   0.06692
 Alpha virt. eigenvalues --    0.07087   0.07092   0.07441   0.07443   0.07519
 Alpha virt. eigenvalues --    0.15075   0.15945   0.15951   0.17008   0.18620

  Beta  occ. eigenvalues -- -256.05324 -30.01914 -25.89496 -25.87663 -25.87663
  Beta  occ. eigenvalues --  -10.18817 -10.18816 -10.18789 -10.18788 -10.18787
  Beta  occ. eigenvalues --  -10.18786 -10.18739 -10.18737 -10.18736 -10.18736
  Beta  occ. eigenvalues --   -3.40637  -2.20603  -2.16390  -2.16390  -0.88666
  Beta  occ. eigenvalues --   -0.86977  -0.70878  -0.70877  -0.70797  -0.70796
  Beta  occ. eigenvalues --   -0.54446  -0.54444  -0.53568  -0.53564  -0.53332
  Beta  occ. eigenvalues --   -0.51935  -0.40932  -0.40609  -0.40604  -0.39656
  Beta  occ. eigenvalues --   -0.39652  -0.37675  -0.37672  -0.37172  -0.37170
  Beta  occ. eigenvalues --   -0.35640  -0.26614  -0.26611  -0.24866  -0.24865
  Beta  occ. eigenvalues --   -0.22360  -0.19588  -0.19585
  Beta virt. eigenvalues --    0.00590   0.00592   0.05473   0.06691   0.06692
  Beta virt. eigenvalues --    0.07087   0.07092   0.07441   0.07443   0.07519
  Beta virt. eigenvalues --    0.15075   0.15945   0.15951   0.17008   0.18620

 Mulliken charges and spin densities:
               1          2
     1  C   -0.197610  -0.000000
     2  H    0.123407  -0.000000
     3  C   -0.197740   0.000000
     4  H    0.123442  -0.000000
     5  C   -0.197701   0.000000
     6  H    0.123385  -0.000000
     7  C   -0.197669   0.000000
     8  H    0.123366   0.000000
     9  C   -0.197403  -0.000000
    10  H    0.123433  -0.000000
    11  C   -0.197514   0.000000
    12  H    0.123413  -0.000000
    13  C   -0.197699   0.000000
    14  H    0.123371  -0.000000
    15  C   -0.197685   0.000000
    16  H    0.123376  -0.000000
    17  C   -0.197484   0.000000
    18  H    0.123395  -0.000000
    19  C   -0.197658   0.000000
    20  H    0.123323  -0.000000
    21  Fe   0.742253   0.000000
 Sum of Mulliken charges =  -0.00000  -0.00000

 Dipole moment (field-independent basis, Debye):
    X=              0.0011    Y=             -0.0029    Z=             -0.0009  Tot=              0.0032
 Quadrupole moment (field-independent basis, Debye-Ang):
   XX=            -80.1443   YY=            -66.4758   ZZ=            -66.4757
   XY=              0.0003   XZ=             -0.0049   YZ=             -0.0008

 Normal termination of Gaussian 16 at Fri Jan 31 16:53:15 2025.
