 Gaussian 16, Revision C.02,

 ----------------------------------------------------------------------
 #p ub3lyp 6-31G(2df,p) opt=(calcfc,cartesian) freq scf=(novaracc,maxcy
 cles=1000,fermi,xqc) empiricaldispersion=gd3
 ----------------------------------------------------------------------

 -------------------
 Title Card Required
 -------------------
 Symbolic Z-matrix:
 Charge =  1 Multiplicity = 2

 SCF Done:  E(UB3LYP) =  -1650.37635251     A.U. after   92 cycles
 SCF Done:  E(UB3LYP) =  -1650.41481588     A.U. after   63 cycles
 SCF Done:  E(UB3LYP) =  -1650.47578958     A.U. after   42 cycles
 SCF Done:  E(UB3LYP) =  -1650.50764377     A.U. after   25 cycles
 SCF Done:  E(UB3LYP) =  -1650.52379968     A.U. after   26 cycles
 SCF Done:  E(UB3LYP) =  -1650.52280935     A.U. after  129 cycles
 SCF Done:  E(UB3LYP) =  -1650.52636242     a.u. after   11 cycles
 SCF Done:  E(UB3LYP) =  -1650.53369249     A.U. after   47 cycles
 SCF Done:  E(UB3LYP) =  -1650.53631106     A.U. after   27 cycles
 SCF Done:  E(UB3LYP) =  -1650.53284073     A.U. after   25 cycles
 SCF Done:  E(UB3LYP) =  -1650.53793891     A.U. after   22 cycles
 SCF Done:  E(UB3LYP) =  -1650.53793299     A.U. after   21 cycles
 SCF Done:  E(UB3LYP) =  -1650.53793955     A.U. after   22 cycles
 SCF Done:  E(UB3LYP) =  -1650.53793810     A.U. after   20 cycles
 SCF Done:  E(UB3LYP) =  -1650.53793968     A.U. after   21 cycles
 SCF Done:  E(UB3LYP) =  -1650.53793628     A.U. after   21 cycles
 SCF Done:  E(UB3LYP) =  -1650.53793843     A.U. after   20 cycles
 SCF Done:  E(UB3LYP) =  -1650.53793931     A.U. after    4 cycles
 Optimization completed.
    -- Stationary point found.
 Normal termination of Gaussian 16 at Fri Jan 31 17:20:51 2025.

 ----------------------------------------------------------------------
 #P Geom=AllCheck Guess=TCheck SCRF=Check GenChk UB3LYP/6-31G(2df,p) Fr
 eq
 ----------------------------------------------------------------------

 Structure from the checkpoint file:  "Ferrocene_p1_gas.chk"
 -------------------
 Title Card Required
 -------------------
 Charge =  1 Multiplicity = 2

 SCF Done:  E(UB3LYP) =  -1650.53793931     A.U. after    1 cycles

  Exact polarizability:     130.858      -0.010      99.584       0.524      -0.002      99.766
 Approx polarizability:     241.901      -0.010     177.741       0.411       0.001     177.790

                      1                      2                      3
                      A                      A                      A
 Frequencies --      9.6614                32.9334               151.6055
 Red. masses --      3.4219                 5.0228                 4.5745
 Frc consts  --      0.0002                 0.0032                 0.0619
 IR Inten    --      0.1590                 9.3201                 0.2207

                      4                      5                      6
                      A                      A                      A
 Frequencies --    178.0555               307.5434               363.9983
 Red. masses --      5.9181                 5.2465                 4.1151
 Frc consts  --      0.1105                 0.2924                 0.3212
 IR Inten    --      6.2104                 0.0001                 0.0398

                      7                      8                      9
                      A                      A                      A
 Frequencies --    397.5469               440.2422               513.4088
 Red. masses --      6.0082                 8.7586                 7.2432
 Frc consts  --      0.5595                 1.0002                 1.1249
 IR Inten    --     14.0916                20.6722                 0.3035

                     10                     11                     12
                      A                      A                      A
 Frequencies --    585.9474               593.0231               598.0192
 Red. masses --      3.8259                 4.0283                 3.8928
 Frc consts  --      0.7739                 0.8347                 0.8202
 IR Inten    --      0.0476                 0.0179                 0.0079

                     13                     14                     15
                      A                      A                      A
 Frequencies --    608.1784               831.8177               834.1259
 Red. masses --      4.0919                 5.7231                 5.6489
 Frc consts  --      0.8917                 2.3331                 2.3157
 IR Inten    --      0.0120                 0.0083                 0.0050

                     16                     17                     18
                      A                      A                      A
 Frequencies --    845.6886               855.9257               884.0956
 Red. masses --      5.4053                 5.1450                 1.1788
 Frc consts  --      2.2777                 2.2208                 0.5429
 IR Inten    --      0.0000                 0.0010                 5.2164

                     19                     20                     21
                      A                      A                      A
 Frequencies --    887.1316               890.3406               900.1394
 Red. masses --      1.1374                 1.1994                 1.2417
 Frc consts  --      0.5274                 0.5602                 0.5928
 IR Inten    --      0.4667                82.3899                 0.0219

                     22                     23                     24
                      A                      A                      A
 Frequencies --    920.4797               925.2512               972.1782
 Red. masses --      1.2254                 1.2331                 1.2117
 Frc consts  --      0.6117                 0.6220                 0.6747
 IR Inten    --      0.5478                 0.6792                 0.0657

                     25                     26                     27
                      A                      A                      A
 Frequencies --    973.2808               980.1898               984.1355
 Red. masses --      1.2104                 1.2299                 1.2292
 Frc consts  --      0.6756                 0.6962                 0.7014
 IR Inten    --      0.0629                 0.0774                 0.0845

                     28                     29                     30
                      A                      A                      A
 Frequencies --   1026.8738              1032.9708              1036.4281
 Red. masses --      1.5432                 1.4944                 1.5012
 Frc consts  --      0.9588                 0.9395                 0.9501
 IR Inten    --      3.2029                 0.0239                 8.2721

                     31                     32                     33
                      A                      A                      A
 Frequencies --   1038.0146              1079.3480              1080.1356
 Red. masses --      1.4979                 1.1967                 1.1936
 Frc consts  --      0.9509                 0.8214                 0.8205
 IR Inten    --     10.6065                 0.2083                 0.2210

                     34                     35                     36
                      A                      A                      A
 Frequencies --   1085.3267              1093.4901              1138.4126
 Red. masses --      1.1748                 1.1792                 5.5335
 Frc consts  --      0.8153                 0.8308                 4.2252
 IR Inten    --      0.3116                 0.2453                 0.0430

                     37                     38                     39
                      A                      A                      A
 Frequencies --   1138.9407              1290.0428              1290.0788
 Red. masses --      5.5595                 1.2786                 1.2787
 Frc consts  --      4.2490                 1.2537                 1.2538
 IR Inten    --      0.0419                 0.0010                 0.0013

                     40                     41                     42
                      A                      A                      A
 Frequencies --   1368.3658              1377.1830              1381.2122
 Red. masses --      4.4582                 4.5695                 4.6804
 Frc consts  --      4.9183                 5.1062                 5.2608
 IR Inten    --      0.5917                 0.0128                 1.8177

                     43                     44                     45
                      A                      A                      A
 Frequencies --   1391.8552              1452.3410              1458.7121
 Red. masses --      4.8870                 2.3502                 2.4555
 Frc consts  --      5.5780                 2.9208                 3.0784
 IR Inten    --      1.3876                10.9061                19.6980

                     46                     47                     48
                      A                      A                      A
 Frequencies --   1460.0772              1460.2418              3243.1964
 Red. masses --      2.4760                 2.4620                 1.0902
 Frc consts  --      3.1100                 3.0931                 6.7561
 IR Inten    --      9.7040                 1.7135                 0.0992

                     49                     50                     51
                      A                      A                      A
 Frequencies --   3243.5422              3245.3539              3246.0679
 Red. masses --      1.0901                 1.0907                 1.0907
 Frc consts  --      6.7573                 6.7682                 6.7715
 IR Inten    --      0.1052                 0.0737                 0.0957

                     52                     53                     54
                      A                      A                      A
 Frequencies --   3256.1545              3256.5972              3256.9957
 Red. masses --      1.0969                 1.0970                 1.0967
 Frc consts  --      6.8520                 6.8546                 6.8546
 IR Inten    --      0.8299                 4.5167                10.5089

                     55                     56                     57
                      A                      A                      A
 Frequencies --   3257.6439              3267.1160              3267.7061
 Red. masses --      1.0969                 1.1073                 1.1071
 Frc consts  --      6.8583                 6.9635                 6.9648
 IR Inten    --     12.3862                 2.6646                 0.0352

 - Thermochemistry -
 -------------------
 Temperature   298.150 Kelvin.  Pressure   1.00000 Atm.
 Atom     1 has atomic number  6 and mass  12.00000

 Molecular mass:   186.01319 amu.
 Principal axes and moments of inertia in atomic units:
                           1         2         3
     Eigenvalues --   818.001601773.709271773.79311
           X            1.00000  -0.00004   0.00192
           Y            0.00003   0.99998   0.00680
           Z           -0.00193  -0.00680   0.99998
 This molecule is an asymmetric top.
 Rotational symmetry number  1.
 Warning -- assumption of classical behavior for rotation
           may cause significant error
 Rotational temperatures (Kelvin)      0.10588     0.04883     0.04883
 Rotational constants (GHZ):           2.20628     1.01750     1.01745
 Zero-point vibrational energy     446717.7 (Joules/Mol)
                                  106.76809 (Kcal/Mol)
 Warning -- explicit consideration of  13 degrees of freedom as
           vibrations may cause significant error
 Vibrational temperatures:     13.90    47.38   218.13   256.18   442.49
          (Kelvin)            523.71   571.98   633.41   738.68   843.05
                              853.23   860.42   875.03  1196.80  1200.12
                             1216.76  1231.49  1272.02  1276.38  1281.00
                             1295.10  1324.37  1331.23  1398.75  1400.33
                             1410.27  1415.95  1477.44  1486.21  1491.19
                             1493.47  1552.94  1554.07  1561.54  1573.29
                             1637.92  1638.68  1856.08  1856.14  1968.77
                             1981.46  1987.26  2002.57  2089.59  2098.76
                             2100.73  2100.96  4666.24  4666.73  4669.34
                             4670.37  4684.88  4685.52  4686.09  4687.02
                             4700.65  4701.50

 Zero-point correction=                           0.170146 (Hartree/Particle)
 Thermal correction to Energy=                    0.179322
 Thermal correction to Enthalpy=                  0.180266
 Thermal correction to Gibbs Free Energy=         0.132481
 Sum of electronic and zero-point Energies=          -1650.367794
 Sum of electronic and thermal Energies=             -1650.358618
 Sum of electronic and thermal Enthalpies=           -1650.357674
 Sum of electronic and thermal Free Energies=        -1650.405458

                     E (Thermal)             CV                S
                      KCal/Mol        Cal/Mol-Kelvin    Cal/Mol-Kelvin
 Total                  112.526             36.230            100.571
 Electronic               0.000              0.000              1.377
 Translational            0.889              2.981             41.568
 Rotational               0.889              2.981             29.333
 Vibrational            110.749             30.269             28.292
 Vibration     1          0.593              1.987              8.079
 Vibration     2          0.594              1.983              5.644
 Vibration     3          0.619              1.901              2.652
 Vibration     4          0.628              1.869              2.349
 Vibration     5          0.697              1.659              1.376
 Vibration     6          0.738              1.546              1.105
 Vibration     7          0.764              1.475              0.972
 Vibration     8          0.800              1.382              0.826
 Vibration     9          0.868              1.220              0.625
 Vibration    10          0.943              1.062              0.474
 Vibration    11          0.951              1.047              0.462
 Vibration    12          0.956              1.036              0.453
 Vibration    13          0.967              1.014              0.436

 Normal termination of Gaussian 16 at Fri Jan 31 17:24:06 2025.
 Gaussian 16:  ES64L-G16RevC.02  7-Dec-2021

 ----------------------------------------------------------------------
 #p ub3lyp scf=(novaracc,maxcycles=1000,fermi,xqc) empiricaldispersion=
 gd3 geom=allcheck guess=read chkbasis scrf=(cpcm,solvent=acetonitrile)
 ----------------------------------------------------------------------

 Structure from the checkpoint file:  "Ferrocene_p1_gas.chk"
 -------------------
 Title Card Required
 -------------------
 Charge =  1 Multiplicity = 2

                         Standard orientation:
 ---------------------------------------------------------------------
 Center     Atomic      Atomic             Coordinates (Angstroms)
 Number     Number       Type             X           Y           Z
 ---------------------------------------------------------------------
      1          6           0       -1.710140    1.024150   -0.625310
      2          1           0       -1.695033    1.935436   -1.205153
      3          6           0       -1.657497    0.930739    0.800125
      4          1           0       -1.614337    1.759548    1.491652
      5          6           0       -1.681673   -0.456327    1.145913
      6          1           0       -1.644142   -0.864459    2.145291
      7          6           0       -1.771422   -0.297571   -1.149347
      8          1           0       -1.782170   -0.563998   -2.196457
      9          6           0       -1.753512   -1.207516   -0.060817
     10          1           0       -1.750125   -2.285177   -0.137981
     11          6           0        1.655277    0.777568   -0.954134
     12          1           0        1.610307    1.468981   -1.782758
     13          6           0        1.697746    1.124232    0.432811
     14          1           0        1.676603    2.124167    0.840961
     15          6           0        1.765424   -0.084125    1.183855
     16          1           0        1.774293   -0.161315    2.261621
     17          6           0        1.692770   -0.647855   -1.046961
     18          1           0        1.659192   -1.227597   -1.957904
     19          6           0        1.762948   -1.172426    0.273136
     20          1           0        1.764818   -2.219484    0.539647
     21         26           0        0.000041    0.003411    0.000210
 ---------------------------------------------------------------------

 SCF Done:  E(UB3LYP) =  -1650.60766968     A.U. after   24 cycles

 The electronic state is 2-A.
 Alpha  occ. eigenvalues -- -256.15031 -30.12818 -25.99125 -25.99124 -25.98649
 Alpha  occ. eigenvalues --  -10.24177 -10.24171 -10.24125 -10.24107 -10.23967
 Alpha  occ. eigenvalues --  -10.23933 -10.23926 -10.23890 -10.23800 -10.23798
 Alpha  occ. eigenvalues --   -3.53336  -2.30896  -2.30893  -2.29881  -0.93838
 Alpha  occ. eigenvalues --   -0.92369  -0.75733  -0.75730  -0.75552  -0.75545
 Alpha  occ. eigenvalues --   -0.58754  -0.58701  -0.57988  -0.57936  -0.57401
 Alpha  occ. eigenvalues --   -0.56163  -0.46178  -0.45012  -0.44982  -0.43813
 Alpha  occ. eigenvalues --   -0.43802  -0.42194  -0.42108  -0.41878  -0.41725
 Alpha  occ. eigenvalues --   -0.40928  -0.34298  -0.33652  -0.33646  -0.31590
 Alpha  occ. eigenvalues --   -0.31401  -0.29347  -0.29337
 Alpha virt. eigenvalues --   -0.09727  -0.09705   0.01582   0.01889   0.02437
 Alpha virt. eigenvalues --    0.02545   0.03619   0.05339   0.05345   0.06286
 Alpha virt. eigenvalues --    0.11009   0.12643   0.13977   0.14168   0.15812

  Beta  occ. eigenvalues -- -256.14996 -30.10552 -25.97684 -25.96798 -25.96797
  Beta  occ. eigenvalues --  -10.24205 -10.24200 -10.24153 -10.24134 -10.24002
  Beta  occ. eigenvalues --  -10.23968 -10.23958 -10.23923 -10.23836 -10.23833
  Beta  occ. eigenvalues --   -3.47601  -2.26835  -2.23307  -2.23305  -0.93896
  Beta  occ. eigenvalues --   -0.92470  -0.75774  -0.75771  -0.75640  -0.75633
  Beta  occ. eigenvalues --   -0.58821  -0.58541  -0.58073  -0.57955  -0.57348
  Beta  occ. eigenvalues --   -0.56193  -0.46257  -0.44736  -0.44706  -0.43838
  Beta  occ. eigenvalues --   -0.43823  -0.42106  -0.42019  -0.41801  -0.41711
  Beta  occ. eigenvalues --   -0.41300  -0.32236  -0.32231  -0.29631  -0.29592
  Beta  occ. eigenvalues --   -0.29498  -0.28717
  Beta virt. eigenvalues --   -0.13103  -0.06839  -0.06825   0.01791   0.01920
  Beta virt. eigenvalues --    0.02341   0.03633   0.04161   0.05324   0.05329
  Beta virt. eigenvalues --    0.06273   0.11598   0.12606   0.13930   0.14214

 Mulliken charges and spin densities:
               1          2
     1  C   -0.165609  -0.024192
     2  H    0.175465   0.000950
     3  C   -0.178921  -0.027663
     4  H    0.173837   0.000880
     5  C   -0.170531  -0.023835
     6  H    0.174778   0.000918
     7  C   -0.143887  -0.013577
     8  H    0.177706   0.000815
     9  C   -0.147222  -0.013407
    10  H    0.177262   0.000811
    11  C   -0.179066  -0.027515
    12  H    0.173794   0.000877
    13  C   -0.169222  -0.025436
    14  H    0.175055   0.000946
    15  C   -0.146543  -0.015229
    16  H    0.177469   0.000844
    17  C   -0.167094  -0.022373
    18  H    0.175255   0.000918
    19  C   -0.144331  -0.012121
    20  H    0.177562   0.000788
    21  Fe   0.854242   1.196600
 Sum of Mulliken charges =   1.00000   1.00000

 Dipole moment (field-independent basis, Debye):
    X=             -0.0002    Y=             -0.2345    Z=             -0.0036  Tot=              0.2345
 Quadrupole moment (field-independent basis, Debye-Ang):
   XX=            -62.1256   YY=            -56.7424   ZZ=            -56.7689
   XY=             -0.0142   XZ=              0.8406   YZ=             -0.0009

 Normal termination of Gaussian 16 at Fri Jan 31 17:24:58 2025.
