 Gaussian 16, Revision C.02,
 Gaussian 16:  ES64L-G16RevC.02  7-Dec-2021

 ----------------------------------------------------------------------
 #p ub3lyp geom=allcheck guess=read chkbasis opt=(calcfc,cartesian) fre
 q scf=(novaracc,maxcycles=1000,fermi,xqc) empiricaldispersion=gd3
 ----------------------------------------------------------------------

 Structure from the checkpoint file:  "Ferrocene_NH4_0_gas.chk"
 -------------------
 Title Card Required
 -------------------
 Charge =  0 Multiplicity = 1

 SCF Done:  E(UB3LYP) =  -2804.64466847     A.U. after    1 cycles
 SCF Done:  E(UB3LYP) =  -2804.64578606     A.U. after   12 cycles
 SCF Done:  E(UB3LYP) =  -2804.64671261     A.U. after   12 cycles
 SCF Done:  E(UB3LYP) =  -2804.64694794     A.U. after   12 cycles
 SCF Done:  E(UB3LYP) =  -2804.64718751     A.U. after   12 cycles
 SCF Done:  E(UB3LYP) =  -2804.64693919     A.U. after   11 cycles
 SCF Done:  E(UB3LYP) =  -2804.64750876     A.U. after   12 cycles
 SCF Done:  E(UB3LYP) =  -2804.64763287     A.U. after   12 cycles
 SCF Done:  E(UB3LYP) =  -2804.64806276     A.U. after   12 cycles
 SCF Done:  E(UB3LYP) =  -2804.64830777     A.U. after   12 cycles
 SCF Done:  E(UB3LYP) =  -2804.64914872     A.U. after   10 cycles
 SCF Done:  E(UB3LYP) =  -2804.64914812     A.U. after   10 cycles
 SCF Done:  E(UB3LYP) =  -2804.64914858     A.U. after   10 cycles
 SCF Done:  E(UB3LYP) =  -2804.64914891     A.U. after    1 cycles
 SCF Done:  E(UB3LYP) =  -2804.64914892     A.U. after    9 cycles
 SCF Done:  E(UB3LYP) =  -2804.64914776     A.U. after   10 cycles
 SCF Done:  E(UB3LYP) =  -2804.64914893     A.U. after    9 cycles
 SCF Done:  E(UB3LYP) =  -2804.64914891     A.U. after    8 cycles
 SCF Done:  E(UB3LYP) =  -2804.64914892     A.U. after   10 cycles
 Optimization completed.
    -- Stationary point found.
 Normal termination of Gaussian 16 at Wed Feb  5 20:20:23 2025.

 ------------------------------------------------------------------
 #P Geom=AllCheck Guess=TCheck SCRF=Check GenChk UB3LYP/ChkBas Freq
 ------------------------------------------------------------------

 Structure from the checkpoint file:  "Ferrocene_NH4_0_gas.chk"
 -------------------
 Title Card Required
 -------------------
 Charge =  0 Multiplicity = 1

                         Standard orientation:
 ---------------------------------------------------------------------
 Center     Atomic      Atomic             Coordinates (Angstroms)
 Number     Number       Type             X           Y           Z
 ---------------------------------------------------------------------
      1          6           0       -3.535579    0.975045    0.778390
      2          1           0       -4.614828    0.952510    0.758782
      3          6           0       -2.692395    1.504718   -0.238596
      4          1           0       -3.014281    1.952324   -1.168313
      5          6           0       -1.327893    1.298812    0.161161
      6          6           0       -2.704430    0.457611    1.817497
      7          1           0       -3.048068   -0.030704    2.717054
      8          6           0       -1.344145    0.646395    1.443990
      9          1           0       -0.473818    0.307472    1.981810
     10          6           0       -3.392915   -2.000384   -0.747794
     11          1           0       -4.471592   -2.024275   -0.797985
     12          6           0       -2.515761   -1.468824   -1.741228
     13          1           0       -2.817550   -1.021143   -2.676904
     14          6           0       -1.176270   -1.622185   -1.273121
     15          1           0       -0.268563   -1.308197   -1.765866
     16          6           0       -2.589823   -2.480001    0.331479
     17          1           0       -2.958507   -2.923892    1.244561
     18          6           0       -1.221302   -2.244285    0.006589
     19          1           0       -0.354425   -2.456260    0.612363
     20         26           0       -2.273564   -0.477009    0.039368
     21          6           0       -0.137547    1.552430   -0.688384
     22          1           0       -0.434149    1.715872   -1.726958
     23          1           0        0.561641    0.726710   -0.645354
     24          7           0        0.695972    2.797537   -0.308393
     25          6           0        1.211888    2.676702    1.099581
     26          1           0        0.361951    2.655959    1.778760
     27          1           0        1.787762    1.756598    1.175359
     28          1           0        1.840095    3.544998    1.305314
     29          6           0       -0.135485    4.029391   -0.439201
     30          1           0        0.460115    4.897242   -0.151761
     31          1           0       -0.460223    4.128668   -1.476160
     32          1           0       -1.006036    3.933189    0.209621
     33          6           0        1.869653    2.850837   -1.245923
     34          1           0        1.496000    2.919793   -2.268423
     35          1           0        2.467752    3.731967   -1.007563
     36          1           0        2.455793    1.941675   -1.110790
     37         15           0        2.704780   -1.040588    0.129266
     38          9           0        1.976308   -2.466897    0.031123
     39          9           0        1.944169   -0.570791   -1.258715
     40          9           0        3.948602   -1.544903   -0.725414
     41          9           0        3.348471    0.471106    0.212842
     42          9           0        3.412582   -1.430681    1.502624
     43          9           0        1.404544   -0.461141    0.973316
 ---------------------------------------------------------------------

 SCF Done:  E(UB3LYP) =  -2804.64914892     A.U. after    1 cycles

 The electronic state is 1-A.
 Alpha  occ. eigenvalues -- -256.06187 -77.25716 -30.02773 -25.90330 -25.88560
 Alpha  occ. eigenvalues --  -25.88511 -24.63715 -24.63591 -24.63538 -24.62658
 Alpha  occ. eigenvalues --  -24.62340 -24.62339 -14.48662 -10.27731 -10.26176
 Alpha  occ. eigenvalues --  -10.25481 -10.25331 -10.21312 -10.20571 -10.20233
 Alpha  occ. eigenvalues --  -10.20039 -10.19761 -10.18993 -10.18949 -10.18764
 Alpha  occ. eigenvalues --  -10.18301 -10.18011  -6.68553  -4.85068  -4.85058
 Alpha  occ. eigenvalues --   -4.85050  -3.41481  -2.21406  -2.17309  -2.17208
 Alpha  occ. eigenvalues --   -1.21587  -1.13943  -1.13884  -1.13849  -1.10556
 Alpha  occ. eigenvalues --   -1.10521  -1.04428  -0.90015  -0.87413  -0.79309
 Alpha  occ. eigenvalues --   -0.78597  -0.77503  -0.72490  -0.70920  -0.70681
 Alpha  occ. eigenvalues --   -0.70636  -0.65329  -0.61363  -0.56856  -0.56569
 Alpha  occ. eigenvalues --   -0.55426  -0.54819  -0.54636  -0.53938  -0.53461
 Alpha  occ. eigenvalues --   -0.52247  -0.50963  -0.50296  -0.50155  -0.50083
 Alpha  occ. eigenvalues --   -0.47604  -0.46761  -0.45256  -0.44555  -0.44270
 Alpha  occ. eigenvalues --   -0.43648  -0.43256  -0.42395  -0.42144  -0.42004
 Alpha  occ. eigenvalues --   -0.41743  -0.41137  -0.40772  -0.40030  -0.39895
 Alpha  occ. eigenvalues --   -0.39703  -0.39468  -0.38730  -0.37564  -0.37191
 Alpha  occ. eigenvalues --   -0.37051  -0.36125  -0.35576  -0.35370  -0.35254
 Alpha  occ. eigenvalues --   -0.35167  -0.35056  -0.34619  -0.31536  -0.31474
 Alpha  occ. eigenvalues --   -0.31385  -0.27709  -0.27613  -0.25282  -0.25060
 Alpha  occ. eigenvalues --   -0.23136  -0.20468  -0.20401
 Alpha virt. eigenvalues --   -0.00833  -0.00223   0.01549   0.03482   0.04617
 Alpha virt. eigenvalues --    0.05336   0.05563   0.06286   0.07096   0.07493
 Alpha virt. eigenvalues --    0.07503   0.08397   0.09057   0.09780   0.09987

  Beta  occ. eigenvalues -- -256.06187 -77.25716 -30.02773 -25.90330 -25.88560
  Beta  occ. eigenvalues --  -25.88511 -24.63715 -24.63591 -24.63538 -24.62658
  Beta  occ. eigenvalues --  -24.62340 -24.62339 -14.48662 -10.27731 -10.26176
  Beta  occ. eigenvalues --  -10.25481 -10.25331 -10.21312 -10.20571 -10.20233
  Beta  occ. eigenvalues --  -10.20039 -10.19761 -10.18993 -10.18949 -10.18764
  Beta  occ. eigenvalues --  -10.18301 -10.18011  -6.68553  -4.85068  -4.85058
  Beta  occ. eigenvalues --   -4.85050  -3.41481  -2.21406  -2.17309  -2.17208
  Beta  occ. eigenvalues --   -1.21587  -1.13943  -1.13884  -1.13849  -1.10556
  Beta  occ. eigenvalues --   -1.10521  -1.04428  -0.90015  -0.87413  -0.79309
  Beta  occ. eigenvalues --   -0.78597  -0.77503  -0.72490  -0.70920  -0.70681
  Beta  occ. eigenvalues --   -0.70636  -0.65329  -0.61363  -0.56856  -0.56569
  Beta  occ. eigenvalues --   -0.55426  -0.54819  -0.54636  -0.53938  -0.53461
  Beta  occ. eigenvalues --   -0.52247  -0.50963  -0.50296  -0.50155  -0.50083
  Beta  occ. eigenvalues --   -0.47604  -0.46761  -0.45256  -0.44555  -0.44270
  Beta  occ. eigenvalues --   -0.43648  -0.43256  -0.42395  -0.42144  -0.42004
  Beta  occ. eigenvalues --   -0.41743  -0.41137  -0.40772  -0.40030  -0.39895
  Beta  occ. eigenvalues --   -0.39703  -0.39468  -0.38730  -0.37564  -0.37191
  Beta  occ. eigenvalues --   -0.37051  -0.36125  -0.35576  -0.35370  -0.35254
  Beta  occ. eigenvalues --   -0.35167  -0.35056  -0.34619  -0.31536  -0.31474
  Beta  occ. eigenvalues --   -0.31385  -0.27709  -0.27613  -0.25282  -0.25060
  Beta  occ. eigenvalues --   -0.23136  -0.20468  -0.20401
  Beta virt. eigenvalues --   -0.00833  -0.00223   0.01549   0.03482   0.04617
  Beta virt. eigenvalues --    0.05336   0.05563   0.06286   0.07096   0.07493
  Beta virt. eigenvalues --    0.07503   0.08397   0.09057   0.09780   0.09987

 Mulliken charges and spin densities:
               1          2
     1  C   -0.184170   0.000000
     2  H    0.116938   0.000000
     3  C   -0.275770  -0.000000
     4  H    0.106463   0.000000
     5  C    0.113458  -0.000000
     6  C   -0.187596  -0.000000
     7  H    0.120534   0.000000
     8  C   -0.266562   0.000000
     9  H    0.149677  -0.000000
    10  C   -0.191267   0.000000
    11  H    0.111239   0.000000
    12  C   -0.189501  -0.000000
    13  H    0.105858  -0.000000
    14  C   -0.182654  -0.000000
    15  H    0.132530  -0.000000
    16  C   -0.187055   0.000000
    17  H    0.113751  -0.000000
    18  C   -0.174176   0.000000
    19  H    0.152958  -0.000000
    20  Fe   0.738195   0.000000
    21  C   -0.334361   0.000000
    22  H    0.131758   0.000000
    23  H    0.226562  -0.000000
    24  N    0.068385  -0.000000
    25  C   -0.366928  -0.000000
    26  H    0.169228   0.000000
    27  H    0.231933   0.000000
    28  H    0.143976   0.000000
    29  C   -0.337073  -0.000000
    30  H    0.156792   0.000000
    31  H    0.158050   0.000000
    32  H    0.187080   0.000000
    33  C   -0.358787  -0.000000
    34  H    0.152623   0.000000
    35  H    0.147874   0.000000
    36  H    0.232235   0.000000
    37  P    0.796453  -0.000000
    38  F   -0.233707   0.000000
    39  F   -0.287725   0.000000
    40  F   -0.210089   0.000000
    41  F   -0.284760  -0.000000
    42  F   -0.210400   0.000000
    43  F   -0.301970   0.000000
 Sum of Mulliken charges =  -0.00000  -0.00000

 Dipole moment (field-independent basis, Debye):
    X=             -6.8211    Y=             11.4664    Z=             -1.2294  Tot=             13.3984
 Quadrupole moment (field-independent basis, Debye-Ang):
   XX=           -163.5310   YY=           -125.5146   ZZ=           -142.2955
   XY=             17.8107   XZ=             -2.2129   YZ=             -7.0560

  Exact polarizability:     198.380      14.398     204.445      -2.544       3.058     164.474
 Approx polarizability:     293.323       7.071     319.882      -2.298      11.675     290.799

                      1                      2                      3
                      A                      A                      A
 Frequencies --     26.4746                47.2196                52.1713
 Red. masses --      9.9765                 5.2983                 5.5092
 Frc consts  --      0.0041                 0.0070                 0.0088
 IR Inten    --      0.1341                 2.2463                 0.8999

                      4                      5                      6
                      A                      A                      A
 Frequencies --     63.0330                77.3723                82.1296
 Red. masses --     10.4704                 6.6344                 9.4435
 Frc consts  --      0.0245                 0.0234                 0.0375
 IR Inten    --      1.1731                 1.4711                 2.5081

                      7                      8                      9
                      A                      A                      A
 Frequencies --     98.1755               114.7567               117.0728
 Red. masses --      5.0353                 3.1576                 4.6764
 Frc consts  --      0.0286                 0.0245                 0.0378
 IR Inten    --      0.3371                 1.8645                15.8631

                     10                     11                     12
                      A                      A                      A
 Frequencies --    137.6123               179.0325               182.4699
 Red. masses --      3.2607                 4.2616                 4.1941
 Frc consts  --      0.0364                 0.0805                 0.0823
 IR Inten    --      1.7364                 4.9401                 3.8859

                     13                     14                     15
                      A                      A                      A
 Frequencies --    224.6943               234.2700               281.5445
 Red. masses --      4.8520                 1.1317                 2.4181
 Frc consts  --      0.1443                 0.0366                 0.1129
 IR Inten    --      7.2726                 0.1022                 2.6136

                     16                     17                     18
                      A                      A                      A
 Frequencies --    295.5269               300.9375               304.8928
 Red. masses --      1.5171                14.8922                 4.8102
 Frc consts  --      0.0781                 0.7946                 0.2635
 IR Inten    --      1.4000                 0.0166                 0.1605

                     19                     20                     21
                      A                      A                      A
 Frequencies --    310.2950               315.0366               332.4357
 Red. masses --      7.3707                 2.1474                 1.3749
 Frc consts  --      0.4181                 0.1256                 0.0895
 IR Inten    --      0.0688                 0.8466                 3.5251

                     22                     23                     24
                      A                      A                      A
 Frequencies --    340.6238               388.9254               408.3277
 Red. masses --      3.6764                 3.5195                 2.6681
 Frc consts  --      0.2513                 0.3137                 0.2621
 IR Inten    --      1.3346                 0.4857                 1.5810

                     25                     26                     27
                      A                      A                      A
 Frequencies --    415.5245               444.7883               458.5249
 Red. masses --      4.1556                 2.6926                17.5325
 Frc consts  --      0.4227                 0.3139                 2.1718
 IR Inten    --      2.5305                 1.0227                 0.2236

                     28                     29                     30
                      A                      A                      A
 Frequencies --    460.0357               462.7850               481.9121
 Red. masses --     11.1424                11.2236                 2.6743
 Frc consts  --      1.3893                 1.4163                 0.3659
 IR Inten    --      0.2051                 1.8484                 2.6783

                     31                     32                     33
                      A                      A                      A
 Frequencies --    492.8444               505.6591               518.7061
 Red. masses --      7.5066                 3.6321                 8.9683
 Frc consts  --      1.0743                 0.5472                 1.4217
 IR Inten    --     21.1658                17.9651                18.0846

                     34                     35                     36
                      A                      A                      A
 Frequencies --    535.7232               543.2446               545.8936
 Red. masses --      5.1177                18.8534                17.6396
 Frc consts  --      0.8654                 3.2782                 3.0971
 IR Inten    --     20.2163                 2.2474                 6.0491

                     37                     38                     39
                      A                      A                      A
 Frequencies --    550.8011               553.4611               555.5797
 Red. masses --     19.2476                16.5952                17.2359
 Frc consts  --      3.4405                 2.9951                 3.1346
 IR Inten    --     25.2918                19.8062                38.3142

                     40                     41                     42
                      A                      A                      A
 Frequencies --    606.9951               609.7661               614.0680
 Red. masses --      4.5644                 4.5579                 4.4392
 Frc consts  --      0.9908                 0.9985                 0.9863
 IR Inten    --      0.3761                 0.2702                 0.2710

                     43                     44                     45
                      A                      A                      A
 Frequencies --    626.4785               708.7357               746.3566
 Red. masses --      5.0546                19.2202                 4.5076
 Frc consts  --      1.1688                 5.6882                 1.4794
 IR Inten    --      0.1457                55.1733                15.4891

                     46                     47                     48
                      A                      A                      A
 Frequencies --    780.3224               843.3606               845.6007
 Red. masses --      5.4692                 1.6538                 3.2194
 Frc consts  --      1.9621                 0.6931                 1.3563
 IR Inten    --      1.3426                 6.7815                 2.5703

                     49                     50                     51
                      A                      A                      A
 Frequencies --    846.6471               854.7463               859.2822
 Red. masses --      3.1534                 3.6078                 1.2391
 Frc consts  --      1.3318                 1.5530                 0.5391
 IR Inten    --     12.2971                31.7759                13.8859

                     52                     53                     54
                      A                      A                      A
 Frequencies --    861.7831               872.1251               875.4555
 Red. masses --      5.3776                 1.2381                 7.1575
 Frc consts  --      2.3531                 0.5548                 3.2320
 IR Inten    --      0.3513                13.2630               314.4564

                     55                     56                     57
                      A                      A                      A
 Frequencies --    890.0876               893.5439               896.7416
 Red. masses --      2.1347                10.4388                 2.0436
 Frc consts  --      0.9965                 4.9106                 0.9682
 IR Inten    --    155.7920               359.9738               107.2138

                     58                     59                     60
                      A                      A                      A
 Frequencies --    900.6584               916.1437               930.5924
 Red. masses --      1.2606                 1.2748                 1.6038
 Frc consts  --      0.6025                 0.6304                 0.8183
 IR Inten    --     76.0937                40.9896                33.7779

                     61                     62                     63
                      A                      A                      A
 Frequencies --    938.8821               945.8335               946.6817
 Red. masses --      1.5176                 1.2041                 2.8506
 Frc consts  --      0.7882                 0.6346                 1.5052
 IR Inten    --     18.1479                14.6974                 1.0990

                     64                     65                     66
                      A                      A                      A
 Frequencies --    982.4924               991.3120              1009.8073
 Red. masses --      2.2706                 1.1863                 2.0345
 Frc consts  --      1.2914                 0.6868                 1.2223
 IR Inten    --     10.7271                 1.5102                10.2619

                     67                     68                     69
                      A                      A                      A
 Frequencies --   1028.1662              1028.8749              1055.6812
 Red. masses --      1.5152                 1.4888                 1.3568
 Frc consts  --      0.9437                 0.9286                 0.8909
 IR Inten    --      3.7528                 5.2295                 8.2305

                     70                     71                     72
                      A                      A                      A
 Frequencies --   1070.3683              1075.4808              1082.7037
 Red. masses --      1.5915                 1.4228                 1.1911
 Frc consts  --      1.0743                 0.9696                 0.8227
 IR Inten    --      4.6988                 4.4265                 1.4630

                     73                     74                     75
                      A                      A                      A
 Frequencies --   1090.6947              1094.8532              1133.4669
 Red. masses --      1.1883                 1.1961                 1.2946
 Frc consts  --      0.8329                 0.8447                 0.9799
 IR Inten    --      8.2333                 0.2406                 1.1791

                     76                     77                     78
                      A                      A                      A
 Frequencies --   1135.7050              1151.0836              1223.9808
 Red. masses --      5.6041                 1.3247                 1.3940
 Frc consts  --      4.2588                 1.0341                 1.2304
 IR Inten    --      4.7992                 2.7580                 0.2799

                     79                     80                     81
                      A                      A                      A
 Frequencies --   1271.3125              1277.2551              1278.8489
 Red. masses --      1.5418                 2.5149                 1.8588
 Frc consts  --      1.4682                 2.4173                 1.7911
 IR Inten    --      1.4880                17.9930                 1.7563

                     82                     83                     84
                      A                      A                      A
 Frequencies --   1282.5694              1296.4458              1342.9345
 Red. masses --      1.2781                 1.7891                 2.1652
 Frc consts  --      1.2388                 1.7717                 2.3006
 IR Inten    --      0.1223                 1.8843                 1.9749

                     85                     86                     87
                      A                      A                      A
 Frequencies --   1378.1270              1381.9079              1395.0030
 Red. masses --      4.2859                 3.8720                 3.2572
 Frc consts  --      4.7959                 4.3566                 3.7347
 IR Inten    --      0.4308                 0.6923                 2.1374

                     88                     89                     90
                      A                      A                      A
 Frequencies --   1403.6749              1425.8223              1436.4515
 Red. masses --      3.2055                 1.3601                 2.3990
 Frc consts  --      3.7212                 1.6291                 2.9165
 IR Inten    --      3.1170                23.0165                 1.2204

                     91                     92                     93
                      A                      A                      A
 Frequencies --   1451.7743              1451.9324              1452.8417
 Red. masses --      1.3491                 1.8383                 2.4135
 Frc consts  --      1.6753                 2.2833                 3.0015
 IR Inten    --      3.0327                 3.0203                 2.2075

                     94                     95                     96
                      A                      A                      A
 Frequencies --   1461.8703              1479.2380              1480.8304
 Red. masses --      1.1342                 1.0892                 1.1313
 Frc consts  --      1.4280                 1.4043                 1.4616
 IR Inten    --      4.9762                 1.1093                 1.6941

                     97                     98                     99
                      A                      A                      A
 Frequencies --   1491.3244              1494.0274              1497.7145
 Red. masses --      1.1356                 1.0475                 2.2812
 Frc consts  --      1.4881                 1.3776                 3.0149
 IR Inten    --      4.6476                 0.9949                 8.2246

                    100                    101                    102
                      A                      A                      A
 Frequencies --   1503.9263              1518.1887              1529.8682
 Red. masses --      1.1349                 1.0644                 1.0678
 Frc consts  --      1.5124                 1.4455                 1.4724
 IR Inten    --     30.9539                23.5569                57.1413

                    103                    104                    105
                      A                      A                      A
 Frequencies --   1543.1024              3062.0990              3066.0627
 Red. masses --      1.0932                 1.0309                 1.0319
 Frc consts  --      1.5337                 5.6954                 5.7154
 IR Inten    --     13.8615                 7.5975                11.7456

                    106                    107                    108
                      A                      A                      A
 Frequencies --   3077.4480              3086.5455              3153.9424
 Red. masses --      1.0358                 1.0682                 1.1067
 Frc consts  --      5.7797                 5.9957                 6.4863
 IR Inten    --     26.9397                27.3983                 0.1520

                    109                    110                    111
                      A                      A                      A
 Frequencies --   3158.4601              3168.1918              3172.9906
 Red. masses --      1.1057                 1.1059                 1.1033
 Frc consts  --      6.4991                 6.5403                 6.5448
 IR Inten    --     12.1445                 0.8732                 6.3188

                    112                    113                    114
                      A                      A                      A
 Frequencies --   3179.9682              3207.2757              3224.9673
 Red. masses --      1.1080                 1.1072                 1.0908
 Frc consts  --      6.6011                 6.7102                 6.6844
 IR Inten    --     14.1940                13.8946                 4.2417

                    115                    116                    117
                      A                      A                      A
 Frequencies --   3226.8659              3228.3013              3236.7555
 Red. masses --      1.0948                 1.0887                 1.0921
 Frc consts  --      6.7167                 6.6853                 6.7410
 IR Inten    --     96.0792                 6.6469                 5.5600

                    118                    119                    120
                      A                      A                      A
 Frequencies --   3239.7999              3248.8281              3252.9961
 Red. masses --      1.0917                 1.0994                 1.0994
 Frc consts  --      6.7513                 6.8369                 6.8547
 IR Inten    --      5.1890                 3.6193                 3.1278

                    121                    122                    123
                      A                      A                      A
 Frequencies --   3261.7547              3277.5288              3278.9088
 Red. masses --      1.0944                 1.0977                 1.0990
 Frc consts  --      6.8604                 6.9476                 6.9618
 IR Inten    --      2.2271                 0.0205                16.3137

 - Thermochemistry -
 -------------------
 Temperature   298.150 Kelvin.  Pressure   1.00000 Atm.
 Atom     1 has atomic number  6 and mass  12.00000

 Molecular mass:   403.05870 amu.
 Principal axes and moments of inertia in atomic units:
                           1         2         3
     Eigenvalues --  5506.654339363.63713**********
           X            0.99897   0.04519  -0.00326
           Y           -0.04522   0.99892  -0.01075
           Z            0.00277   0.01089   0.99994
 This molecule is an asymmetric top.
 Rotational symmetry number  1.
 Warning -- assumption of classical behavior for rotation
           may cause significant error
 Rotational temperatures (Kelvin)      0.01573     0.00925     0.00691
 Rotational constants (GHZ):           0.32774     0.19274     0.14400
 Zero-point vibrational energy     883697.9 (Joules/Mol)
                                  211.20887 (Kcal/Mol)
 Warning -- explicit consideration of  42 degrees of freedom as
           vibrations may cause significant error
 Vibrational temperatures:     38.09    67.94    75.06    90.69   111.32
          (Kelvin)            118.17   141.25   165.11   168.44   197.99
                              257.59   262.53   323.28   337.06   405.08
                              425.20   432.98   438.67   446.45   453.27
                              478.30   490.08   559.58   587.49   597.85
                              639.95   659.72   661.89   665.84   693.36
                              709.09   727.53   746.30   770.79   781.61
                              785.42   792.48   796.31   799.36   873.33
                              877.32   883.51   901.36  1019.71  1073.84
                             1122.71  1213.41  1216.63  1218.14  1229.79
                             1236.32  1239.91  1254.79  1259.59  1280.64
                             1285.61  1290.21  1295.85  1318.13  1338.91
                             1350.84  1360.84  1362.06  1413.59  1426.28
                             1452.89  1479.30  1480.32  1518.89  1540.02
                             1547.38  1557.77  1569.27  1575.25  1630.81
                             1634.03  1656.15  1761.04  1829.14  1837.69
                             1839.98  1845.33  1865.30  1932.18  1982.82
                             1988.26  2007.10  2019.58  2051.44  2066.73
                             2088.78  2089.01  2090.32  2103.31  2128.29
                             2130.58  2145.68  2149.57  2154.88  2163.81
                             2184.33  2201.14  2220.18  4405.68  4411.38
                             4427.76  4440.85  4537.82  4544.32  4558.32
                             4565.23  4575.26  4614.55  4640.01  4642.74
                             4644.81  4656.97  4661.35  4674.34  4680.34
                             4692.94  4715.63  4717.62

 Zero-point correction=                           0.336583 (Hartree/Particle)
 Thermal correction to Energy=                    0.359079
 Thermal correction to Enthalpy=                  0.360023
 Thermal correction to Gibbs Free Energy=         0.285452
 Sum of electronic and zero-point Energies=          -2804.312566
 Sum of electronic and thermal Energies=             -2804.290070
 Sum of electronic and thermal Enthalpies=           -2804.289126
 Sum of electronic and thermal Free Energies=        -2804.363697

                     E (Thermal)             CV                S
                      KCal/Mol        Cal/Mol-Kelvin    Cal/Mol-Kelvin
 Total                  225.326             89.896            156.949
 Electronic               0.000              0.000              0.000
 Translational            0.889              2.981             43.873
 Rotational               0.889              2.981             34.823
 Vibrational            223.548             83.934             78.252
 Vibration     1          0.593              1.985              6.077
 Vibration     2          0.595              1.979              4.931
 Vibration     3          0.596              1.977              4.733
 Vibration     4          0.597              1.972              4.360
 Vibration     5          0.599              1.964              3.956
 Vibration     6          0.600              1.961              3.839
 Vibration     7          0.604              1.950              3.490
 Vibration     8          0.608              1.937              3.187
 Vibration     9          0.608              1.935              3.148
 Vibration    10          0.614              1.916              2.837
 Vibration    11          0.629              1.868              2.338
 Vibration    12          0.630              1.864              2.303
 Vibration    13          0.649              1.803              1.921
 Vibration    14          0.654              1.788              1.846
 Vibration    15          0.681              1.708              1.524
 Vibration    16          0.690              1.682              1.442
 Vibration    17          0.693              1.672              1.412
 Vibration    18          0.696              1.664              1.390
 Vibration    19          0.699              1.654              1.361
 Vibration    20          0.702              1.645              1.336
 Vibration    21          0.714              1.611              1.248
 Vibration    22          0.720              1.594              1.209
 Vibration    23          0.757              1.494              1.004
 Vibration    24          0.773              1.452              0.933
 Vibration    25          0.779              1.437              0.907
 Vibration    26          0.804              1.372              0.812
 Vibration    27          0.817              1.342              0.770
 Vibration    28          0.818              1.339              0.766
 Vibration    29          0.820              1.333              0.758
 Vibration    30          0.838              1.290              0.705
 Vibration    31          0.849              1.266              0.676
 Vibration    32          0.861              1.237              0.644
 Vibration    33          0.874              1.209              0.613
 Vibration    34          0.891              1.171              0.575
 Vibration    35          0.898              1.154              0.558
 Vibration    36          0.901              1.149              0.553
 Vibration    37          0.906              1.138              0.543
 Vibration    38          0.909              1.132              0.537
 Vibration    39          0.911              1.127              0.533
 Vibration    40          0.966              1.017              0.438
 Vibration    41          0.969              1.011              0.433
 Vibration    42          0.973              1.002              0.426

 Optimization completed.
    -- Stationary point found.
 Normal termination of Gaussian 16 at Wed Feb  5 20:43:49 2025.
