 Gaussian 16, Revision C.02,

 ----------------------------------------------------------------------
 #p ub3lyp geom=allcheck guess=read chkbasis opt=(calcfc,cartesian) fre
 q scf=(novaracc,maxcycles=1000,fermi,xqc) empiricaldispersion=gd3
 ----------------------------------------------------------------------

 Structure from the checkpoint file:  "Ferrocene_NH4_0_gas.chk"
 -------------------
 Title Card Required
 -------------------
 Charge =  0 Multiplicity = 1

 SCF Done:  E(UB3LYP) =  -2804.64909960     A.U. after    1 cycles
 SCF Done:  E(UB3LYP) =  -2804.64912876     A.U. after   11 cycles
 SCF Done:  E(UB3LYP) =  -2804.64914307     A.U. after   11 cycles
 SCF Done:  E(UB3LYP) =  -2804.64914782     A.U. after   11 cycles
 SCF Done:  E(UB3LYP) =  -2804.64914659     A.U. after   10 cycles
 SCF Done:  E(UB3LYP) =  -2804.64914871     A.U. after   10 cycles
 SCF Done:  E(UB3LYP) =  -2804.64914879     A.U. after   10 cycles
 SCF Done:  E(UB3LYP) =  -2804.64914887     A.U. after   10 cycles
 SCF Done:  E(UB3LYP) =  -2804.64914892     A.U. after   10 cycles
 Optimization completed.
    -- Stationary point found.
 Normal termination of Gaussian 16 at Sat Feb  1 16:51:08 2025.

 ------------------------------------------------------------------
 #P Geom=AllCheck Guess=TCheck SCRF=Check GenChk UB3LYP/ChkBas Freq
 ------------------------------------------------------------------

 Structure from the checkpoint file:  "Ferrocene_NH4_0_gas.chk"
 -------------------
 Title Card Required
 -------------------
 Charge =  0 Multiplicity = 1

 SCF Done:  E(UB3LYP) =  -2804.64914892     A.U. after    1 cycles

  Exact polarizability:     198.377      14.397     204.437      -2.545       3.059     164.479
 Approx polarizability:     293.320       7.072     319.870      -2.300      11.681     290.806

                      1                      2                      3
                      A                      A                      A
 Frequencies --     26.3473                47.1794                52.1072
 Red. masses --      9.9628                 5.3017                 5.5031
 Frc consts  --      0.0041                 0.0070                 0.0088
 IR Inten    --      0.1343                 2.2245                 0.9222

                      4                      5                      6
                      A                      A                      A
 Frequencies --     62.9940                77.2682                82.0975
 Red. masses --     10.4586                 6.6473                 9.4569
 Frc consts  --      0.0245                 0.0234                 0.0376
 IR Inten    --      1.1651                 1.4911                 2.4957

                      7                      8                      9
                      A                      A                      A
 Frequencies --     98.1600               114.7876               117.1145
 Red. masses --      5.0382                 3.1688                 4.6470
 Frc consts  --      0.0286                 0.0246                 0.0376
 IR Inten    --      0.3399                 2.0016                15.7293

                     10                     11                     12
                      A                      A                      A
 Frequencies --    137.6020               179.0358               182.4637
 Red. masses --      3.2616                 4.2610                 4.1956
 Frc consts  --      0.0364                 0.0805                 0.0823
 IR Inten    --      1.7376                 4.9225                 3.8973

                     13                     14                     15
                      A                      A                      A
 Frequencies --    224.6872               234.2546               281.5244
 Red. masses --      4.8519                 1.1313                 2.4173
 Frc consts  --      0.1443                 0.0366                 0.1129
 IR Inten    --      7.2762                 0.1026                 2.6150

                     16                     17                     18
                      A                      A                      A
 Frequencies --    295.5461               300.9369               304.8911
 Red. masses --      1.5179                14.8946                 4.8082
 Frc consts  --      0.0781                 0.7947                 0.2633
 IR Inten    --      1.3972                 0.0167                 0.1618

                     19                     20                     21
                      A                      A                      A
 Frequencies --    310.2790               315.0324               332.4331
 Red. masses --      7.3822                 2.1473                 1.3744
 Frc consts  --      0.4187                 0.1256                 0.0895
 IR Inten    --      0.0684                 0.8447                 3.5277

                     22                     23                     24
                      A                      A                      A
 Frequencies --    340.6314               388.9295               408.3513
 Red. masses --      3.6768                 3.5203                 2.6684
 Frc consts  --      0.2514                 0.3137                 0.2622
 IR Inten    --      1.3365                 0.4863                 1.5825

                     25                     26                     27
                      A                      A                      A
 Frequencies --    415.5171               444.7870               458.5388
 Red. masses --      4.1547                 2.6927                17.5264
 Frc consts  --      0.4226                 0.3139                 2.1712
 IR Inten    --      2.5281                 1.0236                 0.2232

                     28                     29                     30
                      A                      A                      A
 Frequencies --    460.0368               462.7836               481.9330
 Red. masses --     11.1478                11.2254                 2.6742
 Frc consts  --      1.3900                 1.4165                 0.3659
 IR Inten    --      0.2060                 1.8480                 2.6789

                     31                     32                     33
                      A                      A                      A
 Frequencies --    492.8563               505.6658               518.7151
 Red. masses --      7.5038                 3.6310                 8.9693
 Frc consts  --      1.0739                 0.5470                 1.4219
 IR Inten    --     21.1688                17.9545                18.0903

                     34                     35                     36
                      A                      A                      A
 Frequencies --    535.7278               543.2854               545.9064
 Red. masses --      5.1190                18.8588                17.6390
 Frc consts  --      0.8656                 3.2796                 3.0971
 IR Inten    --     20.2271                 2.2811                 6.0472

                     37                     38                     39
                      A                      A                      A
 Frequencies --    550.8088               553.4615               555.6017
 Red. masses --     19.2484                16.5921                17.2377
 Frc consts  --      3.4407                 2.9945                 3.1351
 IR Inten    --     25.2798                19.8223                38.2859

                     40                     41                     42
                      A                      A                      A
 Frequencies --    606.9944               609.7645               614.0702
 Red. masses --      4.5640                 4.5579                 4.4392
 Frc consts  --      0.9908                 0.9985                 0.9863
 IR Inten    --      0.3750                 0.2704                 0.2709

                     43                     44                     45
                      A                      A                      A
 Frequencies --    626.4791               708.7767               746.3590
 Red. masses --      5.0545                19.2199                 4.5076
 Frc consts  --      1.1688                 5.6888                 1.4794
 IR Inten    --      0.1457                55.1628                15.4861

                     46                     47                     48
                      A                      A                      A
 Frequencies --    780.3427               843.3507               845.6008
 Red. masses --      5.4699                 1.6511                 3.2222
 Frc consts  --      1.9625                 0.6919                 1.3575
 IR Inten    --      1.3405                 6.7947                 2.5761

                     49                     50                     51
                      A                      A                      A
 Frequencies --    846.6434               854.7334               859.2726
 Red. masses --      3.1599                 3.6087                 1.2391
 Frc consts  --      1.3345                 1.5533                 0.5390
 IR Inten    --     12.2625                31.8228                13.8616

                     52                     53                     54
                      A                      A                      A
 Frequencies --    861.7837               872.1139               875.4564
 Red. masses --      5.3768                 1.2373                 7.1857
 Frc consts  --      2.3527                 0.5545                 3.2448
 IR Inten    --      0.3511                13.1305               314.7168

                     55                     56                     57
                      A                      A                      A
 Frequencies --    890.0928               893.6073               896.7387
 Red. masses --      2.1265                10.4125                 2.0505
 Frc consts  --      0.9926                 4.8989                 0.9715
 IR Inten    --    155.4582               359.9315               107.2330

                     58                     59                     60
                      A                      A                      A
 Frequencies --    900.6513               916.1361               930.5975
 Red. masses --      1.2611                 1.2748                 1.6036
 Frc consts  --      0.6027                 0.6304                 0.8182
 IR Inten    --     76.3252                40.9949                33.8233

                     61                     62                     63
                      A                      A                      A
 Frequencies --    938.8906               945.8243               946.6867
 Red. masses --      1.5180                 1.2042                 2.8496
 Frc consts  --      0.7884                 0.6347                 1.5047
 IR Inten    --     18.1836                14.6878                 1.1034

                     64                     65                     66
                      A                      A                      A
 Frequencies --    982.4877               991.2845              1009.7933
 Red. masses --      2.2705                 1.1863                 2.0343
 Frc consts  --      1.2913                 0.6868                 1.2222
 IR Inten    --     10.7259                 1.5110                10.2517

                     67                     68                     69
                      A                      A                      A
 Frequencies --   1028.1603              1028.8775              1055.6756
 Red. masses --      1.5152                 1.4887                 1.3568
 Frc consts  --      0.9437                 0.9285                 0.8909
 IR Inten    --      3.7447                 5.2359                 8.2305

                     70                     71                     72
                      A                      A                      A
 Frequencies --   1070.3737              1075.4826              1082.7008
 Red. masses --      1.5907                 1.4234                 1.1910
 Frc consts  --      1.0738                 0.9700                 0.8226
 IR Inten    --      4.6907                 4.4356                 1.4587

                     73                     74                     75
                      A                      A                      A
 Frequencies --   1090.6740              1094.8524              1133.4678
 Red. masses --      1.1883                 1.1961                 1.2946
 Frc consts  --      0.8328                 0.8447                 0.9799
 IR Inten    --      8.2384                 0.2413                 1.1790

                     76                     77                     78
                      A                      A                      A
 Frequencies --   1135.7284              1151.0729              1223.9821
 Red. masses --      5.6036                 1.3247                 1.3940
 Frc consts  --      4.2586                 1.0341                 1.2304
 IR Inten    --      4.7983                 2.7602                 0.2807

                     79                     80                     81
                      A                      A                      A
 Frequencies --   1271.3081              1277.2559              1278.8442
 Red. masses --      1.5420                 2.5149                 1.8586
 Frc consts  --      1.4683                 2.4173                 1.7909
 IR Inten    --      1.4919                17.9972                 1.7514

                     82                     83                     84
                      A                      A                      A
 Frequencies --   1282.5579              1296.4473              1342.9304
 Red. masses --      1.2781                 1.7891                 2.1647
 Frc consts  --      1.2388                 1.7717                 2.3002
 IR Inten    --      0.1216                 1.8857                 1.9751

                     85                     86                     87
                      A                      A                      A
 Frequencies --   1378.1405              1381.9336              1395.0111
 Red. masses --      4.2854                 3.8708                 3.2579
 Frc consts  --      4.7955                 4.3554                 3.7354
 IR Inten    --      0.4298                 0.6943                 2.1452

                     88                     89                     90
                      A                      A                      A
 Frequencies --   1403.6823              1425.8287              1436.4608
 Red. masses --      3.2074                 1.3605                 2.3977
 Frc consts  --      3.7234                 1.6296                 2.9150
 IR Inten    --      3.1209                22.9968                 1.2281

                     91                     92                     93
                      A                      A                      A
 Frequencies --   1451.7787              1451.9411              1452.8488
 Red. masses --      1.3302                 1.8749                 2.4136
 Frc consts  --      1.6518                 2.3287                 3.0017
 IR Inten    --      2.9250                 3.1264                 2.2036

                     94                     95                     96
                      A                      A                      A
 Frequencies --   1461.8708              1479.2394              1480.8355
 Red. masses --      1.1342                 1.0891                 1.1315
 Frc consts  --      1.4280                 1.4041                 1.4619
 IR Inten    --      4.9755                 1.1120                 1.6898

                     97                     98                     99
                      A                      A                      A
 Frequencies --   1491.3305              1494.0307              1497.7095
 Red. masses --      1.1358                 1.0475                 2.2804
 Frc consts  --      1.4883                 1.3776                 3.0139
 IR Inten    --      4.6496                 0.9914                 8.2346

                    100                    101                    102
                      A                      A                      A
 Frequencies --   1503.9213              1518.1940              1529.8717
 Red. masses --      1.1349                 1.0644                 1.0678
 Frc consts  --      1.5123                 1.4455                 1.4725
 IR Inten    --     30.9478                23.5545                57.1380

                    103                    104                    105
                      A                      A                      A
 Frequencies --   1543.1047              3062.1447              3066.0567
 Red. masses --      1.0932                 1.0309                 1.0319
 Frc consts  --      1.5337                 5.6956                 5.7154
 IR Inten    --     13.8569                 7.4451                11.8672

                    106                    107                    108
                      A                      A                      A
 Frequencies --   3077.4102              3086.5441              3153.9597
 Red. masses --      1.0358                 1.0682                 1.1067
 Frc consts  --      5.7794                 5.9958                 6.4864
 IR Inten    --     26.9919                27.3973                 0.1433

                    109                    110                    111
                      A                      A                      A
 Frequencies --   3158.4808              3168.1675              3172.9421
 Red. masses --      1.1057                 1.1059                 1.1034
 Frc consts  --      6.4992                 6.5402                 6.5447
 IR Inten    --     12.1421                 0.8757                 6.3406

                    112                    113                    114
                      A                      A                      A
 Frequencies --   3180.0322              3207.1534              3225.0127
 Red. masses --      1.1080                 1.1072                 1.0908
 Frc consts  --      6.6014                 6.7097                 6.6846
 IR Inten    --     14.1824                13.9595                 4.4053

                    115                    116                    117
                      A                      A                      A
 Frequencies --   3226.8175              3228.3555              3236.8365
 Red. masses --      1.0949                 1.0887                 1.0921
 Frc consts  --      6.7168                 6.6854                 6.7413
 IR Inten    --     96.3646                 6.1168                 5.5325

                    118                    119                    120
                      A                      A                      A
 Frequencies --   3239.8197              3248.8813              3253.0172
 Red. masses --      1.0917                 1.0994                 1.0994
 Frc consts  --      6.7514                 6.8371                 6.8548
 IR Inten    --      5.2218                 3.6086                 3.1295

                    121                    122                    123
                      A                      A                      A
 Frequencies --   3261.7916              3277.5529              3278.9054
 Red. masses --      1.0944                 1.0978                 1.0990
 Frc consts  --      6.8605                 6.9481                 6.9615
 IR Inten    --      2.2126                 0.0213                16.3384

 - Thermochemistry -
 -------------------
 Temperature   298.150 Kelvin.  Pressure   1.00000 Atm.
 Atom     1 has atomic number  6 and mass  12.00000

 Molecular mass:   403.05870 amu.
 Principal axes and moments of inertia in atomic units:
                           1         2         3
     Eigenvalues --  5506.261119365.06285**********
           X            0.99897   0.04516  -0.00326
           Y           -0.04519   0.99892  -0.01076
           Z            0.00277   0.01090   0.99994
 This molecule is an asymmetric top.
 Rotational symmetry number  1.
 Warning -- assumption of classical behavior for rotation
           may cause significant error
 Rotational temperatures (Kelvin)      0.01573     0.00925     0.00691
 Rotational constants (GHZ):           0.32776     0.19271     0.14400
 Zero-point vibrational energy     883698.3 (Joules/Mol)
                                  211.20896 (Kcal/Mol)
 Warning -- explicit consideration of  42 degrees of freedom as
           vibrations may cause significant error
 Vibrational temperatures:     37.91    67.88    74.97    90.63   111.17
          (Kelvin)            118.12   141.23   165.15   168.50   197.98
                              257.59   262.52   323.27   337.04   405.05
                              425.22   432.98   438.67   446.42   453.26
                              478.30   490.09   559.58   587.53   597.84
                              639.95   659.74   661.89   665.84   693.39
                              709.11   727.54   746.32   770.79   781.67
                              785.44   792.49   796.31   799.39   873.33
                              877.32   883.51   901.36  1019.77  1073.84
                             1122.74  1213.39  1216.63  1218.13  1229.77
                             1236.30  1239.91  1254.78  1259.59  1280.65
                             1285.70  1290.21  1295.84  1318.12  1338.92
                             1350.85  1360.83  1362.07  1413.58  1426.24
                             1452.87  1479.29  1480.33  1518.88  1540.03
                             1547.38  1557.76  1569.24  1575.25  1630.81
                             1634.06  1656.14  1761.04  1829.13  1837.69
                             1839.97  1845.31  1865.30  1932.18  1982.84
                             1988.29  2007.11  2019.59  2051.45  2066.75
                             2088.79  2089.02  2090.33  2103.31  2128.30
                             2130.59  2145.69  2149.58  2154.87  2163.81
                             2184.34  2201.14  2220.18  4405.74  4411.37
                             4427.71  4440.85  4537.84  4544.35  4558.29
                             4565.16  4575.36  4614.38  4640.07  4642.67
                             4644.88  4657.09  4661.38  4674.42  4680.37
                             4692.99  4715.67  4717.61

 Zero-point correction=                           0.336583 (Hartree/Particle)
 Thermal correction to Energy=                    0.359080
 Thermal correction to Enthalpy=                  0.360024
 Thermal correction to Gibbs Free Energy=         0.285444
 Sum of electronic and zero-point Energies=          -2804.312566
 Sum of electronic and thermal Energies=             -2804.290069
 Sum of electronic and thermal Enthalpies=           -2804.289125
 Sum of electronic and thermal Free Energies=        -2804.363704

                     E (Thermal)             CV                S
                      KCal/Mol        Cal/Mol-Kelvin    Cal/Mol-Kelvin
 Total                  225.326             89.896            156.966
 Electronic               0.000              0.000              0.000
 Translational            0.889              2.981             43.873
 Rotational               0.889              2.981             34.823
 Vibrational            223.549             83.934             78.270
 Vibration     1          0.593              1.985              6.087
 Vibration     2          0.595              1.979              4.932
 Vibration     3          0.596              1.977              4.736
 Vibration     4          0.597              1.972              4.361
 Vibration     5          0.599              1.964              3.959
 Vibration     6          0.600              1.961              3.840
 Vibration     7          0.604              1.950              3.491
 Vibration     8          0.608              1.937              3.186
 Vibration     9          0.608              1.935              3.147
 Vibration    10          0.614              1.916              2.837
 Vibration    11          0.629              1.868              2.338
 Vibration    12          0.630              1.864              2.303
 Vibration    13          0.649              1.803              1.921
 Vibration    14          0.654              1.788              1.846
 Vibration    15          0.681              1.708              1.524
 Vibration    16          0.690              1.682              1.442
 Vibration    17          0.693              1.672              1.412
 Vibration    18          0.696              1.664              1.390
 Vibration    19          0.699              1.654              1.361
 Vibration    20          0.702              1.645              1.336
 Vibration    21          0.714              1.611              1.248
 Vibration    22          0.720              1.594              1.209
 Vibration    23          0.757              1.494              1.004
 Vibration    24          0.773              1.452              0.932
 Vibration    25          0.779              1.437              0.907
 Vibration    26          0.804              1.372              0.812
 Vibration    27          0.817              1.342              0.770
 Vibration    28          0.818              1.339              0.766
 Vibration    29          0.820              1.333              0.758
 Vibration    30          0.838              1.290              0.705
 Vibration    31          0.849              1.266              0.676
 Vibration    32          0.861              1.237              0.644
 Vibration    33          0.874              1.209              0.613
 Vibration    34          0.891              1.171              0.575
 Vibration    35          0.898              1.154              0.558
 Vibration    36          0.901              1.149              0.553
 Vibration    37          0.906              1.138              0.542
 Vibration    38          0.909              1.132              0.537
 Vibration    39          0.911              1.127              0.533
 Vibration    40          0.966              1.017              0.438
 Vibration    41          0.969              1.011              0.433
 Vibration    42          0.973              1.002              0.426

 Normal termination of Gaussian 16 at Sat Feb  1 17:14:34 2025.
 Gaussian 16:  ES64L-G16RevC.02  7-Dec-2021

 ----------------------------------------------------------------------
 #p ub3lyp scf=(novaracc,maxcycles=1000,fermi,xqc) empiricaldispersion=
 gd3 geom=allcheck guess=read chkbasis scrf=(cpcm,solvent=acetonitrile)
 ----------------------------------------------------------------------

 Structure from the checkpoint file:  "Ferrocene_NH4_0_gas.chk"
 -------------------
 Title Card Required
 -------------------
 Charge =  0 Multiplicity = 1

                         Standard orientation:
 ---------------------------------------------------------------------
 Center     Atomic      Atomic             Coordinates (Angstroms)
 Number     Number       Type             X           Y           Z
 ---------------------------------------------------------------------
      1          6           0       -3.535615    0.974714    0.779177
      2          1           0       -4.614866    0.952206    0.759789
      3          6           0       -2.692626    1.504681   -0.237818
      4          1           0       -3.014695    1.952555   -1.167336
      5          6           0       -1.328048    1.298635    0.161612
      6          6           0       -2.704273    0.456972    1.817968
      7          1           0       -3.047750   -0.031608    2.717441
      8          6           0       -1.344063    0.645876    1.444268
      9          1           0       -0.473629    0.306839    1.981835
     10          6           0       -3.393066   -2.000185   -0.748290
     11          1           0       -4.471740   -2.024079   -0.798510
     12          6           0       -2.515928   -1.468225   -1.741509
     13          1           0       -2.817719   -1.020174   -2.676997
     14          6           0       -1.176442   -1.621749   -1.273472
     15          1           0       -0.268747   -1.307553   -1.766092
     16          6           0       -2.589965   -2.480203    0.330787
     17          1           0       -2.958645   -2.924462    1.243680
     18          6           0       -1.221449   -2.244334    0.005988
     19          1           0       -0.354561   -2.456515    0.611675
     20         26           0       -2.273718   -0.477101    0.039458
     21          6           0       -0.137851    1.552167   -0.688170
     22          1           0       -0.434620    1.715358   -1.726735
     23          1           0        0.561373    0.726473   -0.645061
     24          7           0        0.695676    2.797379   -0.308566
     25          6           0        1.211676    2.676839    1.099415
     26          1           0        0.361769    2.656148    1.778653
     27          1           0        1.787603    1.756761    1.175329
     28          1           0        1.839834    3.545212    1.304966
     29          6           0       -0.135809    4.029198   -0.439636
     30          1           0        0.459831    4.897137   -0.152543
     31          1           0       -0.460667    4.128152   -1.476594
     32          1           0       -1.006291    3.933207    0.209314
     33          6           0        1.869267    2.850479   -1.246228
     34          1           0        1.495504    2.919047   -2.268713
     35          1           0        2.467282    3.731750   -1.008235
     36          1           0        2.455515    1.941434   -1.110861
     37         15           0        2.705143   -1.040375    0.129319
     38          9           0        1.976891   -2.466883    0.031837
     39          9           0        1.944051   -0.571192   -1.258586
     40          9           0        3.948850   -1.544647   -0.725531
     41          9           0        3.348436    0.471446    0.212248
     42          9           0        3.413440   -1.429851    1.502561
     43          9           0        1.405015   -0.460925    0.973554
 ---------------------------------------------------------------------

 SCF Done:  E(UB3LYP) =  -2804.67840871     A.U. after   13 cycles

 The electronic state is 1-A.
 Alpha  occ. eigenvalues -- -256.05898 -77.29309 -30.02485 -25.90053 -25.88259
 Alpha  occ. eigenvalues --  -25.88224 -24.66995 -24.66865 -24.66797 -24.66324
 Alpha  occ. eigenvalues --  -24.66275 -24.66113 -14.46138 -10.23968 -10.23681
 Alpha  occ. eigenvalues --  -10.23523 -10.23167 -10.20388 -10.19542 -10.19435
 Alpha  occ. eigenvalues --  -10.19380 -10.19183 -10.18917 -10.18879 -10.18841
 Alpha  occ. eigenvalues --  -10.18602 -10.18490  -6.72148  -4.88659  -4.88652
 Alpha  occ. eigenvalues --   -4.88650  -3.41197  -2.21138  -2.17004  -2.16929
 Alpha  occ. eigenvalues --   -1.25264  -1.17701  -1.17556  -1.17372  -1.13952
 Alpha  occ. eigenvalues --   -1.13865  -1.01836  -0.89378  -0.87417  -0.77701
 Alpha  occ. eigenvalues --   -0.75469  -0.74989  -0.71680  -0.70907  -0.70819
 Alpha  occ. eigenvalues --   -0.69330  -0.64979  -0.62940  -0.55698  -0.55111
 Alpha  occ. eigenvalues --   -0.54162  -0.54070  -0.54041  -0.53854  -0.53570
 Alpha  occ. eigenvalues --   -0.53378  -0.52753  -0.52272  -0.52152  -0.49073
 Alpha  occ. eigenvalues --   -0.47083  -0.46724  -0.46638  -0.44913  -0.44063
 Alpha  occ. eigenvalues --   -0.43677  -0.43537  -0.42312  -0.41734  -0.41331
 Alpha  occ. eigenvalues --   -0.40986  -0.40967  -0.40608  -0.40353  -0.40148
 Alpha  occ. eigenvalues --   -0.39955  -0.39465  -0.39083  -0.38894  -0.38572
 Alpha  occ. eigenvalues --   -0.38438  -0.38309  -0.37844  -0.37513  -0.37286
 Alpha  occ. eigenvalues --   -0.37125  -0.36055  -0.35547  -0.35081  -0.34974
 Alpha  occ. eigenvalues --   -0.34912  -0.27222  -0.27142  -0.25203  -0.25026
 Alpha  occ. eigenvalues --   -0.22856  -0.20175  -0.20105
 Alpha virt. eigenvalues --   -0.00293   0.00063   0.03333   0.05504   0.05966
 Alpha virt. eigenvalues --    0.06352   0.06667   0.06971   0.07180   0.07860
 Alpha virt. eigenvalues --    0.08579   0.10384   0.11141   0.11535   0.12471

  Beta  occ. eigenvalues -- -256.05898 -77.29309 -30.02485 -25.90053 -25.88259
  Beta  occ. eigenvalues --  -25.88224 -24.66995 -24.66865 -24.66797 -24.66324
  Beta  occ. eigenvalues --  -24.66275 -24.66113 -14.46138 -10.23968 -10.23681
  Beta  occ. eigenvalues --  -10.23523 -10.23167 -10.20388 -10.19542 -10.19435
  Beta  occ. eigenvalues --  -10.19380 -10.19183 -10.18917 -10.18879 -10.18841
  Beta  occ. eigenvalues --  -10.18602 -10.18490  -6.72148  -4.88659  -4.88652
  Beta  occ. eigenvalues --   -4.88650  -3.41197  -2.21138  -2.17004  -2.16929
  Beta  occ. eigenvalues --   -1.25264  -1.17701  -1.17556  -1.17372  -1.13952
  Beta  occ. eigenvalues --   -1.13865  -1.01836  -0.89378  -0.87417  -0.77701
  Beta  occ. eigenvalues --   -0.75469  -0.74989  -0.71680  -0.70907  -0.70819
  Beta  occ. eigenvalues --   -0.69330  -0.64979  -0.62940  -0.55698  -0.55111
  Beta  occ. eigenvalues --   -0.54162  -0.54070  -0.54041  -0.53854  -0.53570
  Beta  occ. eigenvalues --   -0.53378  -0.52753  -0.52272  -0.52152  -0.49073
  Beta  occ. eigenvalues --   -0.47083  -0.46724  -0.46638  -0.44913  -0.44063
  Beta  occ. eigenvalues --   -0.43677  -0.43537  -0.42312  -0.41734  -0.41331
  Beta  occ. eigenvalues --   -0.40986  -0.40967  -0.40608  -0.40353  -0.40148
  Beta  occ. eigenvalues --   -0.39955  -0.39465  -0.39083  -0.38894  -0.38572
  Beta  occ. eigenvalues --   -0.38438  -0.38309  -0.37844  -0.37513  -0.37286
  Beta  occ. eigenvalues --   -0.37125  -0.36055  -0.35547  -0.35081  -0.34974
  Beta  occ. eigenvalues --   -0.34912  -0.27222  -0.27142  -0.25203  -0.25026
  Beta  occ. eigenvalues --   -0.22856  -0.20175  -0.20105
  Beta virt. eigenvalues --   -0.00293   0.00063   0.03333   0.05504   0.05966
  Beta virt. eigenvalues --    0.06352   0.06667   0.06971   0.07180   0.07860
  Beta virt. eigenvalues --    0.08579   0.10384   0.11141   0.11535   0.12471

 Mulliken charges and spin densities:
               1          2
     1  C   -0.194808  -0.000000
     2  H    0.131790  -0.000000
     3  C   -0.270867   0.000000
     4  H    0.134559   0.000000
     5  C    0.121679  -0.000000
     6  C   -0.198146   0.000000
     7  H    0.131378  -0.000000
     8  C   -0.260762   0.000000
     9  H    0.138341  -0.000000
    10  C   -0.205928  -0.000000
    11  H    0.126880   0.000000
    12  C   -0.203984   0.000000
    13  H    0.124631  -0.000000
    14  C   -0.194260  -0.000000
    15  H    0.121845  -0.000000
    16  C   -0.203277  -0.000000
    17  H    0.125384  -0.000000
    18  C   -0.188526   0.000000
    19  H    0.128648  -0.000000
    20  Fe   0.737397  -0.000000
    21  C   -0.334183   0.000000
    22  H    0.161367   0.000000
    23  H    0.202808   0.000000
    24  N    0.062561  -0.000000
    25  C   -0.365440  -0.000000
    26  H    0.177728   0.000000
    27  H    0.198268   0.000000
    28  H    0.170783   0.000000
    29  C   -0.343933   0.000000
    30  H    0.179231  -0.000000
    31  H    0.178954  -0.000000
    32  H    0.187037  -0.000000
    33  C   -0.360300  -0.000000
    34  H    0.174488   0.000000
    35  H    0.173250   0.000000
    36  H    0.196301   0.000000
    37  P    0.777825  -0.000000
    38  F   -0.239115   0.000000
    39  F   -0.283908   0.000000
    40  F   -0.220316  -0.000000
    41  F   -0.280885   0.000000
    42  F   -0.219792   0.000000
    43  F   -0.294705  -0.000000
 Sum of Mulliken charges =  -0.00000  -0.00000

 Dipole moment (field-independent basis, Debye):
    X=             -7.9993    Y=             14.5256    Z=             -1.5986  Tot=             16.6595
 Quadrupole moment (field-independent basis, Debye-Ang):
   XX=           -164.1401   YY=           -121.5064   ZZ=           -141.5111
   XY=             18.4417   XZ=             -2.2118   YZ=             -8.6141

 Normal termination of Gaussian 16 at Sat Feb  1 17:16:04 2025.
